s 0.000000000 _1_ AGT  --- 0 cbr 1000 [0 0 0 0] ------- [1:0 4:0 32 0] [0] 0 0
r 0.000000000 _1_ RTR  --- 0 cbr 1000 [0 0 0 0] ------- [1:0 4:0 32 0] [0] 0 0
s 0.000000000 _1_ RTR  --- 0 AODV 48 [0 0 0 0] ------- [1:255 -1:255 30 0] [0x2 1 1 [4 0] [1 4]] (REQUEST)
s 0.000155000 _1_ MAC  --- 0 AODV 106 [0 ffffffff 1 800] ------- [1:255 -1:255 30 0] [0x2 1 1 [4 0] [1 4]] (REQUEST)
r 0.001003745 _0_ MAC  --- 0 AODV 48 [0 ffffffff 1 800] ------- [1:255 -1:255 30 0] [0x2 1 1 [4 0] [1 4]] (REQUEST)
r 0.001004014 _2_ MAC  --- 0 AODV 48 [0 ffffffff 1 800] ------- [1:255 -1:255 30 0] [0x2 1 1 [4 0] [1 4]] (REQUEST)
r 0.001004424 _3_ MAC  --- 0 AODV 48 [0 ffffffff 1 800] ------- [1:255 -1:255 30 0] [0x2 1 1 [4 0] [1 4]] (REQUEST)
r 0.001004572 _4_ MAC  --- 0 AODV 48 [0 ffffffff 1 800] ------- [1:255 -1:255 30 0] [0x2 1 1 [4 0] [1 4]] (REQUEST)
r 0.001004909 _5_ MAC  --- 0 AODV 48 [0 ffffffff 1 800] ------- [1:255 -1:255 30 0] [0x2 1 1 [4 0] [1 4]] (REQUEST)
r 0.001028745 _0_ RTR  --- 0 AODV 48 [0 ffffffff 1 800] ------- [1:255 -1:255 30 0] [0x2 1 1 [4 0] [1 4]] (REQUEST)
r 0.001029014 _2_ RTR  --- 0 AODV 48 [0 ffffffff 1 800] ------- [1:255 -1:255 30 0] [0x2 1 1 [4 0] [1 4]] (REQUEST)
r 0.001029424 _3_ RTR  --- 0 AODV 48 [0 ffffffff 1 800] ------- [1:255 -1:255 30 0] [0x2 1 1 [4 0] [1 4]] (REQUEST)
r 0.001029572 _4_ RTR  --- 0 AODV 48 [0 ffffffff 1 800] ------- [1:255 -1:255 30 0] [0x2 1 1 [4 0] [1 4]] (REQUEST)
s 0.001029572 _4_ RTR  --- 0 AODV 44 [0 0 0 0] ------- [4:255 1:255 30 1] [0x4 1 [4 4] 10.000000] (REPLY)
r 0.001029909 _5_ RTR  --- 0 AODV 48 [0 ffffffff 1 800] ------- [1:255 -1:255 30 0] [0x2 1 1 [4 0] [1 4]] (REQUEST)
s 0.001564572 _4_ MAC  --- 0 ARP 86 [0 ffffffff 4 806] ------- [REQUEST 4/4 0/1]
r 0.002252906 _3_ MAC  --- 0 ARP 28 [0 ffffffff 4 806] ------- [REQUEST 4/4 0/1]
r 0.002253073 _5_ MAC  --- 0 ARP 28 [0 ffffffff 4 806] ------- [REQUEST 4/4 0/1]
r 0.002253318 _2_ MAC  --- 0 ARP 28 [0 ffffffff 4 806] ------- [REQUEST 4/4 0/1]
r 0.002254145 _1_ MAC  --- 0 ARP 28 [0 ffffffff 4 806] ------- [REQUEST 4/4 0/1]
r 0.002254888 _0_ MAC  --- 0 ARP 28 [0 ffffffff 4 806] ------- [REQUEST 4/4 0/1]
s 0.002469145 _1_ MAC  --- 0 RTS 44 [52e 4 1 0] 
s 0.002579835 _0_ RTR  --- 0 AODV 48 [0 ffffffff 1 800] ------- [0:255 -1:255 29 0] [0x2 2 1 [4 0] [1 4]] (REQUEST)
r 0.002822717 _4_ MAC  --- 0 RTS 44 [52e 4 1 0] 
s 0.002832717 _4_ MAC  --- 0 CTS 38 [3f4 1 0 0] 
r 0.003138289 _1_ MAC  --- 0 CTS 38 [3f4 1 0 0] 
s 0.003148289 _1_ MAC  --- 0 ARP 86 [13a 4 1 806] ------- [REPLY 1/1 4/4]
r 0.003837862 _4_ MAC  --- 0 ARP 28 [13a 4 1 806] ------- [REPLY 1/1 4/4]
s 0.003847862 _4_ MAC  --- 0 ACK 38 [0 1 0 0] 
r 0.004153434 _1_ MAC  --- 0 ACK 38 [0 1 0 0] 
s 0.004301862 _4_ MAC  --- 0 RTS 44 [5ae 1 4 0] 
s 0.004329861 _2_ RTR  --- 0 AODV 48 [0 ffffffff 1 800] ------- [2:255 -1:255 29 0] [0x2 2 1 [4 0] [1 4]] (REQUEST)
r 0.004655434 _1_ MAC  --- 0 RTS 44 [5ae 1 4 0] 
s 0.004665434 _1_ MAC  --- 0 CTS 38 [474 4 0 0] 
r 0.004971006 _4_ MAC  --- 0 CTS 38 [474 4 0 0] 
s 0.004981006 _4_ MAC  --- 0 AODV 102 [13a 1 4 800] ------- [4:255 1:255 30 1] [0x4 1 [4 4] 10.000000] (REPLY)
r 0.005798579 _1_ MAC  --- 0 AODV 44 [13a 1 4 800] ------- [4:255 1:255 30 1] [0x4 1 [4 4] 10.000000] (REPLY)
s 0.005808579 _1_ MAC  --- 0 ACK 38 [0 4 0 0] 
r 0.005823579 _1_ RTR  --- 0 AODV 44 [13a 1 4 800] ------- [4:255 1:255 30 1] [0x4 1 [4 4] 10.000000] (REPLY)
s 0.005823579 _1_ RTR  --- 0 cbr 1020 [0 0 0 0] ------- [1:0 4:0 30 4] [0] 0 0
r 0.006114151 _4_ MAC  --- 0 ACK 38 [0 4 0 0] 
s 0.006482579 _1_ MAC  --- 0 RTS 44 [242e 4 1 0] 
r 0.006836151 _4_ MAC  --- 0 RTS 44 [242e 4 1 0] 
s 0.006846151 _4_ MAC  --- 0 CTS 38 [22f4 1 0 0] 
r 0.007151723 _1_ MAC  --- 0 CTS 38 [22f4 1 0 0] 
s 0.007161723 _1_ MAC  --- 0 cbr 1078 [13a 4 1 800] ------- [1:0 4:0 30 4] [0] 0 0
s 0.008477402 _5_ RTR  --- 0 AODV 48 [0 ffffffff 1 800] ------- [5:255 -1:255 29 0] [0x2 2 1 [4 0] [1 4]] (REQUEST)
s 0.009737362 _3_ RTR  --- 0 AODV 48 [0 ffffffff 1 800] ------- [3:255 -1:255 29 0] [0x2 2 1 [4 0] [1 4]] (REQUEST)
r 0.015787296 _4_ MAC  --- 0 cbr 1020 [13a 4 1 800] ------- [1:0 4:0 30 4] [0] 1 0
s 0.015797296 _4_ MAC  --- 0 ACK 38 [0 1 0 0] 
r 0.015812296 _4_ AGT  --- 0 cbr 1020 [13a 4 1 800] ------- [1:0 4:0 30 4] [0] 1 0
s 0.016000000 _1_ AGT  --- 1 cbr 1000 [0 0 0 0] ------- [1:0 4:0 32 0] [1] 0 0
r 0.016000000 _1_ RTR  --- 1 cbr 1000 [0 0 0 0] ------- [1:0 4:0 32 0] [1] 0 0
s 0.016000000 _1_ RTR  --- 1 cbr 1020 [0 0 0 0] ------- [1:0 4:0 30 4] [1] 0 0
r 0.016102868 _1_ MAC  --- 0 ACK 38 [0 1 0 0] 
s 0.016151629 _3_ MAC  --- 0 AODV 106 [0 ffffffff 3 800] ------- [3:255 -1:255 29 0] [0x2 2 1 [4 0] [1 4]] (REQUEST)
r 0.016999962 _4_ MAC  --- 0 AODV 48 [0 ffffffff 3 800] ------- [3:255 -1:255 29 0] [0x2 2 1 [4 0] [1 4]] (REQUEST)
r 0.017000100 _2_ MAC  --- 0 AODV 48 [0 ffffffff 3 800] ------- [3:255 -1:255 29 0] [0x2 2 1 [4 0] [1 4]] (REQUEST)
r 0.017000463 _5_ MAC  --- 0 AODV 48 [0 ffffffff 3 800] ------- [3:255 -1:255 29 0] [0x2 2 1 [4 0] [1 4]] (REQUEST)
r 0.017001053 _1_ MAC  --- 0 AODV 48 [0 ffffffff 3 800] ------- [3:255 -1:255 29 0] [0x2 2 1 [4 0] [1 4]] (REQUEST)
r 0.017001796 _0_ MAC  --- 0 AODV 48 [0 ffffffff 3 800] ------- [3:255 -1:255 29 0] [0x2 2 1 [4 0] [1 4]] (REQUEST)
r 0.017024962 _4_ RTR  --- 0 AODV 48 [0 ffffffff 3 800] ------- [3:255 -1:255 29 0] [0x2 2 1 [4 0] [1 4]] (REQUEST)
r 0.017025100 _2_ RTR  --- 0 AODV 48 [0 ffffffff 3 800] ------- [3:255 -1:255 29 0] [0x2 2 1 [4 0] [1 4]] (REQUEST)
r 0.017025463 _5_ RTR  --- 0 AODV 48 [0 ffffffff 3 800] ------- [3:255 -1:255 29 0] [0x2 2 1 [4 0] [1 4]] (REQUEST)
r 0.017026053 _1_ RTR  --- 0 AODV 48 [0 ffffffff 3 800] ------- [3:255 -1:255 29 0] [0x2 2 1 [4 0] [1 4]] (REQUEST)
r 0.017026796 _0_ RTR  --- 0 AODV 48 [0 ffffffff 3 800] ------- [3:255 -1:255 29 0] [0x2 2 1 [4 0] [1 4]] (REQUEST)
s 0.017071796 _0_ MAC  --- 0 AODV 106 [0 ffffffff 0 800] ------- [0:255 -1:255 29 0] [0x2 2 1 [4 0] [1 4]] (REQUEST)
r 0.017920541 _1_ MAC  --- 0 AODV 48 [0 ffffffff 0 800] ------- [0:255 -1:255 29 0] [0x2 2 1 [4 0] [1 4]] (REQUEST)
r 0.017921536 _2_ MAC  --- 0 AODV 48 [0 ffffffff 0 800] ------- [0:255 -1:255 29 0] [0x2 2 1 [4 0] [1 4]] (REQUEST)
r 0.017921962 _3_ MAC  --- 0 AODV 48 [0 ffffffff 0 800] ------- [0:255 -1:255 29 0] [0x2 2 1 [4 0] [1 4]] (REQUEST)
r 0.017922111 _4_ MAC  --- 0 AODV 48 [0 ffffffff 0 800] ------- [0:255 -1:255 29 0] [0x2 2 1 [4 0] [1 4]] (REQUEST)
r 0.017922425 _5_ MAC  --- 0 AODV 48 [0 ffffffff 0 800] ------- [0:255 -1:255 29 0] [0x2 2 1 [4 0] [1 4]] (REQUEST)
r 0.017945541 _1_ RTR  --- 0 AODV 48 [0 ffffffff 0 800] ------- [0:255 -1:255 29 0] [0x2 2 1 [4 0] [1 4]] (REQUEST)
r 0.017946536 _2_ RTR  --- 0 AODV 48 [0 ffffffff 0 800] ------- [0:255 -1:255 29 0] [0x2 2 1 [4 0] [1 4]] (REQUEST)
r 0.017946962 _3_ RTR  --- 0 AODV 48 [0 ffffffff 0 800] ------- [0:255 -1:255 29 0] [0x2 2 1 [4 0] [1 4]] (REQUEST)
r 0.017947111 _4_ RTR  --- 0 AODV 48 [0 ffffffff 0 800] ------- [0:255 -1:255 29 0] [0x2 2 1 [4 0] [1 4]] (REQUEST)
r 0.017947425 _5_ RTR  --- 0 AODV 48 [0 ffffffff 0 800] ------- [0:255 -1:255 29 0] [0x2 2 1 [4 0] [1 4]] (REQUEST)
s 0.018051536 _2_ MAC  --- 0 AODV 106 [0 ffffffff 2 800] ------- [2:255 -1:255 29 0] [0x2 2 1 [4 0] [1 4]] (REQUEST)
r 0.018900007 _3_ MAC  --- 0 AODV 48 [0 ffffffff 2 800] ------- [2:255 -1:255 29 0] [0x2 2 1 [4 0] [1 4]] (REQUEST)
r 0.018900281 _4_ MAC  --- 0 AODV 48 [0 ffffffff 2 800] ------- [2:255 -1:255 29 0] [0x2 2 1 [4 0] [1 4]] (REQUEST)
r 0.018900549 _1_ MAC  --- 0 AODV 48 [0 ffffffff 2 800] ------- [2:255 -1:255 29 0] [0x2 2 1 [4 0] [1 4]] (REQUEST)
r 0.018900759 _5_ MAC  --- 0 AODV 48 [0 ffffffff 2 800] ------- [2:255 -1:255 29 0] [0x2 2 1 [4 0] [1 4]] (REQUEST)
r 0.018901276 _0_ MAC  --- 0 AODV 48 [0 ffffffff 2 800] ------- [2:255 -1:255 29 0] [0x2 2 1 [4 0] [1 4]] (REQUEST)
r 0.018925007 _3_ RTR  --- 0 AODV 48 [0 ffffffff 2 800] ------- [2:255 -1:255 29 0] [0x2 2 1 [4 0] [1 4]] (REQUEST)
r 0.018925281 _4_ RTR  --- 0 AODV 48 [0 ffffffff 2 800] ------- [2:255 -1:255 29 0] [0x2 2 1 [4 0] [1 4]] (REQUEST)
r 0.018925549 _1_ RTR  --- 0 AODV 48 [0 ffffffff 2 800] ------- [2:255 -1:255 29 0] [0x2 2 1 [4 0] [1 4]] (REQUEST)
r 0.018925759 _5_ RTR  --- 0 AODV 48 [0 ffffffff 2 800] ------- [2:255 -1:255 29 0] [0x2 2 1 [4 0] [1 4]] (REQUEST)
r 0.018926276 _0_ RTR  --- 0 AODV 48 [0 ffffffff 2 800] ------- [2:255 -1:255 29 0] [0x2 2 1 [4 0] [1 4]] (REQUEST)
s 0.019090759 _5_ MAC  --- 0 AODV 106 [0 ffffffff 5 800] ------- [5:255 -1:255 29 0] [0x2 2 1 [4 0] [1 4]] (REQUEST)
r 0.019939260 _4_ MAC  --- 0 AODV 48 [0 ffffffff 5 800] ------- [5:255 -1:255 29 0] [0x2 2 1 [4 0] [1 4]] (REQUEST)
r 0.019939593 _3_ MAC  --- 0 AODV 48 [0 ffffffff 5 800] ------- [5:255 -1:255 29 0] [0x2 2 1 [4 0] [1 4]] (REQUEST)
r 0.019939982 _2_ MAC  --- 0 AODV 48 [0 ffffffff 5 800] ------- [5:255 -1:255 29 0] [0x2 2 1 [4 0] [1 4]] (REQUEST)
r 0.019940668 _1_ MAC  --- 0 AODV 48 [0 ffffffff 5 800] ------- [5:255 -1:255 29 0] [0x2 2 1 [4 0] [1 4]] (REQUEST)
r 0.019941388 _0_ MAC  --- 0 AODV 48 [0 ffffffff 5 800] ------- [5:255 -1:255 29 0] [0x2 2 1 [4 0] [1 4]] (REQUEST)
r 0.019964260 _4_ RTR  --- 0 AODV 48 [0 ffffffff 5 800] ------- [5:255 -1:255 29 0] [0x2 2 1 [4 0] [1 4]] (REQUEST)
r 0.019964593 _3_ RTR  --- 0 AODV 48 [0 ffffffff 5 800] ------- [5:255 -1:255 29 0] [0x2 2 1 [4 0] [1 4]] (REQUEST)
r 0.019964982 _2_ RTR  --- 0 AODV 48 [0 ffffffff 5 800] ------- [5:255 -1:255 29 0] [0x2 2 1 [4 0] [1 4]] (REQUEST)
r 0.019965668 _1_ RTR  --- 0 AODV 48 [0 ffffffff 5 800] ------- [5:255 -1:255 29 0] [0x2 2 1 [4 0] [1 4]] (REQUEST)
r 0.019966388 _0_ RTR  --- 0 AODV 48 [0 ffffffff 5 800] ------- [5:255 -1:255 29 0] [0x2 2 1 [4 0] [1 4]] (REQUEST)
s 0.020270668 _1_ MAC  --- 0 RTS 44 [242e 4 1 0] 
r 0.020624240 _4_ MAC  --- 0 RTS 44 [242e 4 1 0] 
s 0.020634240 _4_ MAC  --- 0 CTS 38 [22f4 1 0 0] 
r 0.020939813 _1_ MAC  --- 0 CTS 38 [22f4 1 0 0] 
s 0.020949813 _1_ MAC  --- 1 cbr 1078 [13a 4 1 800] ------- [1:0 4:0 30 4] [1] 0 0
r 0.029575385 _4_ MAC  --- 1 cbr 1020 [13a 4 1 800] ------- [1:0 4:0 30 4] [1] 1 0
s 0.029585385 _4_ MAC  --- 0 ACK 38 [0 1 0 0] 
r 0.029600385 _4_ AGT  --- 1 cbr 1020 [13a 4 1 800] ------- [1:0 4:0 30 4] [1] 1 0
r 0.029890957 _1_ MAC  --- 0 ACK 38 [0 1 0 0] 
s 0.032000000 _1_ AGT  --- 2 cbr 1000 [0 0 0 0] ------- [1:0 4:0 32 0] [2] 0 0
r 0.032000000 _1_ RTR  --- 2 cbr 1000 [0 0 0 0] ------- [1:0 4:0 32 0] [2] 0 0
s 0.032000000 _1_ RTR  --- 2 cbr 1020 [0 0 0 0] ------- [1:0 4:0 30 4] [2] 0 0
s 0.032475000 _1_ MAC  --- 0 RTS 44 [242e 4 1 0] 
r 0.032828572 _4_ MAC  --- 0 RTS 44 [242e 4 1 0] 
s 0.032838572 _4_ MAC  --- 0 CTS 38 [22f4 1 0 0] 
r 0.033144145 _1_ MAC  --- 0 CTS 38 [22f4 1 0 0] 
s 0.033154145 _1_ MAC  --- 2 cbr 1078 [13a 4 1 800] ------- [1:0 4:0 30 4] [2] 0 0
r 0.041779717 _4_ MAC  --- 2 cbr 1020 [13a 4 1 800] ------- [1:0 4:0 30 4] [2] 1 0
s 0.041789717 _4_ MAC  --- 0 ACK 38 [0 1 0 0] 
r 0.041804717 _4_ AGT  --- 2 cbr 1020 [13a 4 1 800] ------- [1:0 4:0 30 4] [2] 1 0
r 0.042095289 _1_ MAC  --- 0 ACK 38 [0 1 0 0] 
s 0.048000000 _1_ AGT  --- 3 cbr 1000 [0 0 0 0] ------- [1:0 4:0 32 0] [3] 0 0
r 0.048000000 _1_ RTR  --- 3 cbr 1000 [0 0 0 0] ------- [1:0 4:0 32 0] [3] 0 0
s 0.048000000 _1_ RTR  --- 3 cbr 1020 [0 0 0 0] ------- [1:0 4:0 30 4] [3] 0 0
s 0.048635000 _1_ MAC  --- 0 RTS 44 [242e 4 1 0] 
r 0.048988572 _4_ MAC  --- 0 RTS 44 [242e 4 1 0] 
s 0.048998572 _4_ MAC  --- 0 CTS 38 [22f4 1 0 0] 
r 0.049304145 _1_ MAC  --- 0 CTS 38 [22f4 1 0 0] 
s 0.049314145 _1_ MAC  --- 3 cbr 1078 [13a 4 1 800] ------- [1:0 4:0 30 4] [3] 0 0
r 0.057939717 _4_ MAC  --- 3 cbr 1020 [13a 4 1 800] ------- [1:0 4:0 30 4] [3] 1 0
s 0.057949717 _4_ MAC  --- 0 ACK 38 [0 1 0 0] 
r 0.057964717 _4_ AGT  --- 3 cbr 1020 [13a 4 1 800] ------- [1:0 4:0 30 4] [3] 1 0
r 0.058255289 _1_ MAC  --- 0 ACK 38 [0 1 0 0] 
s 0.064000000 _1_ AGT  --- 4 cbr 1000 [0 0 0 0] ------- [1:0 4:0 32 0] [4] 0 0
r 0.064000000 _1_ RTR  --- 4 cbr 1000 [0 0 0 0] ------- [1:0 4:0 32 0] [4] 0 0
s 0.064000000 _1_ RTR  --- 4 cbr 1020 [0 0 0 0] ------- [1:0 4:0 30 4] [4] 0 0
s 0.064415000 _1_ MAC  --- 0 RTS 44 [242e 4 1 0] 
r 0.064768572 _4_ MAC  --- 0 RTS 44 [242e 4 1 0] 
s 0.064778572 _4_ MAC  --- 0 CTS 38 [22f4 1 0 0] 
r 0.065084145 _1_ MAC  --- 0 CTS 38 [22f4 1 0 0] 
s 0.065094145 _1_ MAC  --- 4 cbr 1078 [13a 4 1 800] ------- [1:0 4:0 30 4] [4] 0 0
r 0.073719717 _4_ MAC  --- 4 cbr 1020 [13a 4 1 800] ------- [1:0 4:0 30 4] [4] 1 0
s 0.073729717 _4_ MAC  --- 0 ACK 38 [0 1 0 0] 
r 0.073744717 _4_ AGT  --- 4 cbr 1020 [13a 4 1 800] ------- [1:0 4:0 30 4] [4] 1 0
r 0.074035289 _1_ MAC  --- 0 ACK 38 [0 1 0 0] 
s 0.080000000 _1_ AGT  --- 5 cbr 1000 [0 0 0 0] ------- [1:0 4:0 32 0] [5] 0 0
r 0.080000000 _1_ RTR  --- 5 cbr 1000 [0 0 0 0] ------- [1:0 4:0 32 0] [5] 0 0
s 0.080000000 _1_ RTR  --- 5 cbr 1020 [0 0 0 0] ------- [1:0 4:0 30 4] [5] 0 0
s 0.080175000 _1_ MAC  --- 0 RTS 44 [242e 4 1 0] 
r 0.080528572 _4_ MAC  --- 0 RTS 44 [242e 4 1 0] 
s 0.080538572 _4_ MAC  --- 0 CTS 38 [22f4 1 0 0] 
r 0.080844145 _1_ MAC  --- 0 CTS 38 [22f4 1 0 0] 
s 0.080854145 _1_ MAC  --- 5 cbr 1078 [13a 4 1 800] ------- [1:0 4:0 30 4] [5] 0 0
r 0.089479717 _4_ MAC  --- 5 cbr 1020 [13a 4 1 800] ------- [1:0 4:0 30 4] [5] 1 0
s 0.089489717 _4_ MAC  --- 0 ACK 38 [0 1 0 0] 
r 0.089504717 _4_ AGT  --- 5 cbr 1020 [13a 4 1 800] ------- [1:0 4:0 30 4] [5] 1 0
r 0.089795289 _1_ MAC  --- 0 ACK 38 [0 1 0 0] 
s 0.096000000 _1_ AGT  --- 6 cbr 1000 [0 0 0 0] ------- [1:0 4:0 32 0] [6] 0 0
r 0.096000000 _1_ RTR  --- 6 cbr 1000 [0 0 0 0] ------- [1:0 4:0 32 0] [6] 0 0
s 0.096000000 _1_ RTR  --- 6 cbr 1020 [0 0 0 0] ------- [1:0 4:0 30 4] [6] 0 0
s 0.096555000 _1_ MAC  --- 0 RTS 44 [242e 4 1 0] 
r 0.096908572 _4_ MAC  --- 0 RTS 44 [242e 4 1 0] 
s 0.096918572 _4_ MAC  --- 0 CTS 38 [22f4 1 0 0] 
r 0.097224145 _1_ MAC  --- 0 CTS 38 [22f4 1 0 0] 
s 0.097234145 _1_ MAC  --- 6 cbr 1078 [13a 4 1 800] ------- [1:0 4:0 30 4] [6] 0 0
s 0.100000000 _2_ AGT  --- 7 cbr 1000 [0 0 0 0] ------- [2:0 0:0 32 0] [0] 0 0
r 0.100000000 _2_ RTR  --- 7 cbr 1000 [0 0 0 0] ------- [2:0 0:0 32 0] [0] 0 0
s 0.100000000 _4_ AGT  --- 8 cbr 1000 [0 0 0 0] ------- [4:1 3:0 32 0] [0] 0 0
r 0.100000000 _4_ RTR  --- 8 cbr 1000 [0 0 0 0] ------- [4:1 3:0 32 0] [0] 0 0
s 0.100000000 _2_ RTR  --- 0 AODV 48 [0 0 0 0] ------- [2:255 -1:255 30 0] [0x2 1 1 [0 0] [2 4]] (REQUEST)
s 0.100000000 _4_ RTR  --- 0 AODV 48 [0 0 0 0] ------- [4:255 -1:255 30 0] [0x2 1 1 [3 0] [4 6]] (REQUEST)
r 0.105859717 _4_ MAC  --- 6 cbr 1020 [13a 4 1 800] ------- [1:0 4:0 30 4] [6] 1 0
s 0.105869717 _4_ MAC  --- 0 ACK 38 [0 1 0 0] 
r 0.105884717 _4_ AGT  --- 6 cbr 1020 [13a 4 1 800] ------- [1:0 4:0 30 4] [6] 1 0
r 0.106175289 _1_ MAC  --- 0 ACK 38 [0 1 0 0] 
s 0.106223717 _4_ MAC  --- 0 AODV 106 [0 ffffffff 4 800] ------- [4:255 -1:255 30 0] [0x2 1 1 [3 0] [4 6]] (REQUEST)
r 0.107072050 _3_ MAC  --- 0 AODV 48 [0 ffffffff 4 800] ------- [4:255 -1:255 30 0] [0x2 1 1 [3 0] [4 6]] (REQUEST)
r 0.107072218 _5_ MAC  --- 0 AODV 48 [0 ffffffff 4 800] ------- [4:255 -1:255 30 0] [0x2 1 1 [3 0] [4 6]] (REQUEST)
r 0.107072462 _2_ MAC  --- 0 AODV 48 [0 ffffffff 4 800] ------- [4:255 -1:255 30 0] [0x2 1 1 [3 0] [4 6]] (REQUEST)
r 0.107073289 _1_ MAC  --- 0 AODV 48 [0 ffffffff 4 800] ------- [4:255 -1:255 30 0] [0x2 1 1 [3 0] [4 6]] (REQUEST)
r 0.107074032 _0_ MAC  --- 0 AODV 48 [0 ffffffff 4 800] ------- [4:255 -1:255 30 0] [0x2 1 1 [3 0] [4 6]] (REQUEST)
r 0.107097050 _3_ RTR  --- 0 AODV 48 [0 ffffffff 4 800] ------- [4:255 -1:255 30 0] [0x2 1 1 [3 0] [4 6]] (REQUEST)
s 0.107097050 _3_ RTR  --- 0 AODV 44 [0 0 0 0] ------- [3:255 4:255 30 4] [0x4 1 [3 4] 10.000000] (REPLY)
r 0.107097218 _5_ RTR  --- 0 AODV 48 [0 ffffffff 4 800] ------- [4:255 -1:255 30 0] [0x2 1 1 [3 0] [4 6]] (REQUEST)
r 0.107097462 _2_ RTR  --- 0 AODV 48 [0 ffffffff 4 800] ------- [4:255 -1:255 30 0] [0x2 1 1 [3 0] [4 6]] (REQUEST)
r 0.107098289 _1_ RTR  --- 0 AODV 48 [0 ffffffff 4 800] ------- [4:255 -1:255 30 0] [0x2 1 1 [3 0] [4 6]] (REQUEST)
r 0.107099032 _0_ RTR  --- 0 AODV 48 [0 ffffffff 4 800] ------- [4:255 -1:255 30 0] [0x2 1 1 [3 0] [4 6]] (REQUEST)
s 0.107302462 _2_ MAC  --- 0 AODV 106 [0 ffffffff 2 800] ------- [2:255 -1:255 30 0] [0x2 1 1 [0 0] [2 4]] (REQUEST)
r 0.108150934 _3_ MAC  --- 0 AODV 48 [0 ffffffff 2 800] ------- [2:255 -1:255 30 0] [0x2 1 1 [0 0] [2 4]] (REQUEST)
r 0.108151208 _4_ MAC  --- 0 AODV 48 [0 ffffffff 2 800] ------- [2:255 -1:255 30 0] [0x2 1 1 [0 0] [2 4]] (REQUEST)
r 0.108151476 _1_ MAC  --- 0 AODV 48 [0 ffffffff 2 800] ------- [2:255 -1:255 30 0] [0x2 1 1 [0 0] [2 4]] (REQUEST)
r 0.108151685 _5_ MAC  --- 0 AODV 48 [0 ffffffff 2 800] ------- [2:255 -1:255 30 0] [0x2 1 1 [0 0] [2 4]] (REQUEST)
r 0.108152202 _0_ MAC  --- 0 AODV 48 [0 ffffffff 2 800] ------- [2:255 -1:255 30 0] [0x2 1 1 [0 0] [2 4]] (REQUEST)
r 0.108175934 _3_ RTR  --- 0 AODV 48 [0 ffffffff 2 800] ------- [2:255 -1:255 30 0] [0x2 1 1 [0 0] [2 4]] (REQUEST)
r 0.108176208 _4_ RTR  --- 0 AODV 48 [0 ffffffff 2 800] ------- [2:255 -1:255 30 0] [0x2 1 1 [0 0] [2 4]] (REQUEST)
r 0.108176476 _1_ RTR  --- 0 AODV 48 [0 ffffffff 2 800] ------- [2:255 -1:255 30 0] [0x2 1 1 [0 0] [2 4]] (REQUEST)
r 0.108176685 _5_ RTR  --- 0 AODV 48 [0 ffffffff 2 800] ------- [2:255 -1:255 30 0] [0x2 1 1 [0 0] [2 4]] (REQUEST)
r 0.108177202 _0_ RTR  --- 0 AODV 48 [0 ffffffff 2 800] ------- [2:255 -1:255 30 0] [0x2 1 1 [0 0] [2 4]] (REQUEST)
s 0.108177202 _0_ RTR  --- 0 AODV 44 [0 0 0 0] ------- [0:255 2:255 30 2] [0x4 1 [0 4] 10.000000] (REPLY)
s 0.108492202 _0_ MAC  --- 0 ARP 86 [0 ffffffff 0 806] ------- [REQUEST 0/0 0/2]
s 0.109142322 _4_ RTR  --- 0 AODV 48 [0 ffffffff 2 800] ------- [4:255 -1:255 29 0] [0x2 2 1 [0 0] [2 4]] (REQUEST)
r 0.109180948 _1_ MAC  --- 0 ARP 28 [0 ffffffff 0 806] ------- [REQUEST 0/0 0/2]
r 0.109181942 _2_ MAC  --- 0 ARP 28 [0 ffffffff 0 806] ------- [REQUEST 0/0 0/2]
r 0.109182369 _3_ MAC  --- 0 ARP 28 [0 ffffffff 0 806] ------- [REQUEST 0/0 0/2]
r 0.109182518 _4_ MAC  --- 0 ARP 28 [0 ffffffff 0 806] ------- [REQUEST 0/0 0/2]
r 0.109182832 _5_ MAC  --- 0 ARP 28 [0 ffffffff 0 806] ------- [REQUEST 0/0 0/2]
s 0.109253313 _3_ RTR  --- 0 AODV 48 [0 ffffffff 2 800] ------- [3:255 -1:255 29 0] [0x2 2 1 [0 0] [2 4]] (REQUEST)
s 0.109332518 _4_ MAC  --- 0 AODV 106 [0 ffffffff 4 800] ------- [4:255 -1:255 29 0] [0x2 2 1 [0 0] [2 4]] (REQUEST)
r 0.110180851 _3_ MAC  --- 0 AODV 48 [0 ffffffff 4 800] ------- [4:255 -1:255 29 0] [0x2 2 1 [0 0] [2 4]] (REQUEST)
r 0.110181019 _5_ MAC  --- 0 AODV 48 [0 ffffffff 4 800] ------- [4:255 -1:255 29 0] [0x2 2 1 [0 0] [2 4]] (REQUEST)
r 0.110181263 _2_ MAC  --- 0 AODV 48 [0 ffffffff 4 800] ------- [4:255 -1:255 29 0] [0x2 2 1 [0 0] [2 4]] (REQUEST)
r 0.110182090 _1_ MAC  --- 0 AODV 48 [0 ffffffff 4 800] ------- [4:255 -1:255 29 0] [0x2 2 1 [0 0] [2 4]] (REQUEST)
r 0.110182833 _0_ MAC  --- 0 AODV 48 [0 ffffffff 4 800] ------- [4:255 -1:255 29 0] [0x2 2 1 [0 0] [2 4]] (REQUEST)
r 0.110205851 _3_ RTR  --- 0 AODV 48 [0 ffffffff 4 800] ------- [4:255 -1:255 29 0] [0x2 2 1 [0 0] [2 4]] (REQUEST)
r 0.110206019 _5_ RTR  --- 0 AODV 48 [0 ffffffff 4 800] ------- [4:255 -1:255 29 0] [0x2 2 1 [0 0] [2 4]] (REQUEST)
r 0.110206263 _2_ RTR  --- 0 AODV 48 [0 ffffffff 4 800] ------- [4:255 -1:255 29 0] [0x2 2 1 [0 0] [2 4]] (REQUEST)
r 0.110207090 _1_ RTR  --- 0 AODV 48 [0 ffffffff 4 800] ------- [4:255 -1:255 29 0] [0x2 2 1 [0 0] [2 4]] (REQUEST)
r 0.110207833 _0_ RTR  --- 0 AODV 48 [0 ffffffff 4 800] ------- [4:255 -1:255 29 0] [0x2 2 1 [0 0] [2 4]] (REQUEST)
s 0.110330851 _3_ MAC  --- 0 RTS 44 [5ae 4 3 0] 
r 0.110683184 _4_ MAC  --- 0 RTS 44 [5ae 4 3 0] 
s 0.110693184 _4_ MAC  --- 0 CTS 38 [474 3 0 0] 
r 0.110997518 _3_ MAC  --- 0 CTS 38 [474 3 0 0] 
s 0.111007518 _3_ MAC  --- 0 AODV 102 [13a 4 3 800] ------- [3:255 4:255 30 4] [0x4 1 [3 4] 10.000000] (REPLY)
r 0.111823851 _4_ MAC  --- 0 AODV 44 [13a 4 3 800] ------- [3:255 4:255 30 4] [0x4 1 [3 4] 10.000000] (REPLY)
s 0.111833851 _4_ MAC  --- 0 ACK 38 [0 3 0 0] 
r 0.111848851 _4_ RTR  --- 0 AODV 44 [13a 4 3 800] ------- [3:255 4:255 30 4] [0x4 1 [3 4] 10.000000] (REPLY)
s 0.111848851 _4_ RTR  --- 8 cbr 1020 [0 0 0 0] ------- [4:1 3:0 30 3] [0] 0 0
s 0.112000000 _1_ AGT  --- 9 cbr 1000 [0 0 0 0] ------- [1:0 4:0 32 0] [7] 0 0
r 0.112000000 _1_ RTR  --- 9 cbr 1000 [0 0 0 0] ------- [1:0 4:0 32 0] [7] 0 0
s 0.112000000 _1_ RTR  --- 9 cbr 1020 [0 0 0 0] ------- [1:0 4:0 30 4] [7] 0 0
r 0.112138184 _3_ MAC  --- 0 ACK 38 [0 3 0 0] 
s 0.112211139 _5_ RTR  --- 0 AODV 48 [0 ffffffff 4 800] ------- [5:255 -1:255 29 0] [0x2 2 1 [3 0] [4 6]] (REQUEST)
s 0.112367851 _4_ MAC  --- 0 ARP 86 [0 ffffffff 4 806] ------- [REQUEST 4/4 0/3]
s 0.112606321 _5_ RTR  --- 0 AODV 48 [0 ffffffff 2 800] ------- [5:255 -1:255 29 0] [0x2 2 1 [0 0] [2 4]] (REQUEST)
r 0.113056184 _3_ MAC  --- 0 ARP 28 [0 ffffffff 4 806] ------- [REQUEST 4/4 0/3]
r 0.113056352 _5_ MAC  --- 0 ARP 28 [0 ffffffff 4 806] ------- [REQUEST 4/4 0/3]
r 0.113056596 _2_ MAC  --- 0 ARP 28 [0 ffffffff 4 806] ------- [REQUEST 4/4 0/3]
r 0.113057423 _1_ MAC  --- 0 ARP 28 [0 ffffffff 4 806] ------- [REQUEST 4/4 0/3]
r 0.113058167 _0_ MAC  --- 0 ARP 28 [0 ffffffff 4 806] ------- [REQUEST 4/4 0/3]
s 0.113206352 _5_ MAC  --- 0 AODV 106 [0 ffffffff 5 800] ------- [5:255 -1:255 29 0] [0x2 2 1 [3 0] [4 6]] (REQUEST)
r 0.114054853 _4_ MAC  --- 0 AODV 48 [0 ffffffff 5 800] ------- [5:255 -1:255 29 0] [0x2 2 1 [3 0] [4 6]] (REQUEST)
r 0.114055186 _3_ MAC  --- 0 AODV 48 [0 ffffffff 5 800] ------- [5:255 -1:255 29 0] [0x2 2 1 [3 0] [4 6]] (REQUEST)
r 0.114055575 _2_ MAC  --- 0 AODV 48 [0 ffffffff 5 800] ------- [5:255 -1:255 29 0] [0x2 2 1 [3 0] [4 6]] (REQUEST)
r 0.114056262 _1_ MAC  --- 0 AODV 48 [0 ffffffff 5 800] ------- [5:255 -1:255 29 0] [0x2 2 1 [3 0] [4 6]] (REQUEST)
r 0.114056981 _0_ MAC  --- 0 AODV 48 [0 ffffffff 5 800] ------- [5:255 -1:255 29 0] [0x2 2 1 [3 0] [4 6]] (REQUEST)
r 0.114079853 _4_ RTR  --- 0 AODV 48 [0 ffffffff 5 800] ------- [5:255 -1:255 29 0] [0x2 2 1 [3 0] [4 6]] (REQUEST)
r 0.114080186 _3_ RTR  --- 0 AODV 48 [0 ffffffff 5 800] ------- [5:255 -1:255 29 0] [0x2 2 1 [3 0] [4 6]] (REQUEST)
r 0.114080575 _2_ RTR  --- 0 AODV 48 [0 ffffffff 5 800] ------- [5:255 -1:255 29 0] [0x2 2 1 [3 0] [4 6]] (REQUEST)
r 0.114081262 _1_ RTR  --- 0 AODV 48 [0 ffffffff 5 800] ------- [5:255 -1:255 29 0] [0x2 2 1 [3 0] [4 6]] (REQUEST)
r 0.114081981 _0_ RTR  --- 0 AODV 48 [0 ffffffff 5 800] ------- [5:255 -1:255 29 0] [0x2 2 1 [3 0] [4 6]] (REQUEST)
s 0.114125575 _2_ MAC  --- 0 RTS 44 [52e 0 2 0] 
s 0.114187814 _1_ RTR  --- 0 AODV 48 [0 ffffffff 2 800] ------- [1:255 -1:255 29 0] [0x2 2 1 [0 0] [2 4]] (REQUEST)
s 0.114260244 _0_ RTR  --- 0 AODV 48 [0 ffffffff 4 800] ------- [0:255 -1:255 29 0] [0x2 2 1 [3 0] [4 6]] (REQUEST)
r 0.114479315 _0_ MAC  --- 0 RTS 44 [52e 0 2 0] 
s 0.114489315 _0_ MAC  --- 0 CTS 38 [3f4 2 0 0] 
r 0.114795055 _2_ MAC  --- 0 CTS 38 [3f4 2 0 0] 
s 0.114805055 _2_ MAC  --- 0 ARP 86 [13a 0 2 806] ------- [REPLY 2/2 0/0]
s 0.115128209 _1_ RTR  --- 0 AODV 48 [0 ffffffff 4 800] ------- [1:255 -1:255 29 0] [0x2 2 1 [3 0] [4 6]] (REQUEST)
s 0.115214977 _2_ RTR  --- 0 AODV 48 [0 ffffffff 4 800] ------- [2:255 -1:255 29 0] [0x2 2 1 [3 0] [4 6]] (REQUEST)
r 0.115494795 _0_ MAC  --- 0 ARP 28 [13a 0 2 806] ------- [REPLY 2/2 0/0]
s 0.115504795 _0_ MAC  --- 0 ACK 38 [0 2 0 0] 
r 0.115810535 _2_ MAC  --- 0 ACK 38 [0 2 0 0] 
s 0.115880535 _2_ MAC  --- 0 AODV 106 [0 ffffffff 2 800] ------- [2:255 -1:255 29 0] [0x2 2 1 [3 0] [4 6]] (REQUEST)
s 0.116000000 _2_ AGT  --- 10 cbr 1000 [0 0 0 0] ------- [2:0 0:0 32 0] [1] 0 0
r 0.116000000 _2_ RTR  --- 10 cbr 1000 [0 0 0 0] ------- [2:0 0:0 32 0] [1] 0 0
s 0.116000000 _4_ AGT  --- 11 cbr 1000 [0 0 0 0] ------- [4:1 3:0 32 0] [1] 0 0
r 0.116000000 _4_ RTR  --- 11 cbr 1000 [0 0 0 0] ------- [4:1 3:0 32 0] [1] 0 0
s 0.116000000 _4_ RTR  --- 11 cbr 1020 [0 0 0 0] ------- [4:1 3:0 30 3] [1] 0 0
D 0.116000000 _4_ IFQ  ARP 8 cbr 1020 [0 0 4 800] ------- [4:1 3:0 30 3] [0] 0 0
r 0.116729007 _3_ MAC  --- 0 AODV 48 [0 ffffffff 2 800] ------- [2:255 -1:255 29 0] [0x2 2 1 [3 0] [4 6]] (REQUEST)
r 0.116729281 _4_ MAC  --- 0 AODV 48 [0 ffffffff 2 800] ------- [2:255 -1:255 29 0] [0x2 2 1 [3 0] [4 6]] (REQUEST)
r 0.116729549 _1_ MAC  --- 0 AODV 48 [0 ffffffff 2 800] ------- [2:255 -1:255 29 0] [0x2 2 1 [3 0] [4 6]] (REQUEST)
r 0.116729758 _5_ MAC  --- 0 AODV 48 [0 ffffffff 2 800] ------- [2:255 -1:255 29 0] [0x2 2 1 [3 0] [4 6]] (REQUEST)
r 0.116730275 _0_ MAC  --- 0 AODV 48 [0 ffffffff 2 800] ------- [2:255 -1:255 29 0] [0x2 2 1 [3 0] [4 6]] (REQUEST)
r 0.116754007 _3_ RTR  --- 0 AODV 48 [0 ffffffff 2 800] ------- [2:255 -1:255 29 0] [0x2 2 1 [3 0] [4 6]] (REQUEST)
r 0.116754281 _4_ RTR  --- 0 AODV 48 [0 ffffffff 2 800] ------- [2:255 -1:255 29 0] [0x2 2 1 [3 0] [4 6]] (REQUEST)
r 0.116754549 _1_ RTR  --- 0 AODV 48 [0 ffffffff 2 800] ------- [2:255 -1:255 29 0] [0x2 2 1 [3 0] [4 6]] (REQUEST)
r 0.116754758 _5_ RTR  --- 0 AODV 48 [0 ffffffff 2 800] ------- [2:255 -1:255 29 0] [0x2 2 1 [3 0] [4 6]] (REQUEST)
r 0.116755275 _0_ RTR  --- 0 AODV 48 [0 ffffffff 2 800] ------- [2:255 -1:255 29 0] [0x2 2 1 [3 0] [4 6]] (REQUEST)
s 0.116859549 _1_ MAC  --- 0 RTS 44 [242e 4 1 0] 
r 0.117213122 _4_ MAC  --- 0 RTS 44 [242e 4 1 0] 
s 0.117223122 _4_ MAC  --- 0 CTS 38 [22f4 1 0 0] 
r 0.117528694 _1_ MAC  --- 0 CTS 38 [22f4 1 0 0] 
s 0.117538694 _1_ MAC  --- 9 cbr 1078 [13a 4 1 800] ------- [1:0 4:0 30 4] [7] 0 0
r 0.126164266 _4_ MAC  --- 9 cbr 1020 [13a 4 1 800] ------- [1:0 4:0 30 4] [7] 1 0
s 0.126174266 _4_ MAC  --- 0 ACK 38 [0 1 0 0] 
r 0.126189266 _4_ AGT  --- 9 cbr 1020 [13a 4 1 800] ------- [1:0 4:0 30 4] [7] 1 0
r 0.126479838 _1_ MAC  --- 0 ACK 38 [0 1 0 0] 
s 0.126550582 _0_ MAC  --- 0 AODV 106 [0 ffffffff 0 800] ------- [0:255 -1:255 29 0] [0x2 2 1 [3 0] [4 6]] (REQUEST)
r 0.127399327 _1_ MAC  --- 0 AODV 48 [0 ffffffff 0 800] ------- [0:255 -1:255 29 0] [0x2 2 1 [3 0] [4 6]] (REQUEST)
r 0.127400322 _2_ MAC  --- 0 AODV 48 [0 ffffffff 0 800] ------- [0:255 -1:255 29 0] [0x2 2 1 [3 0] [4 6]] (REQUEST)
r 0.127400748 _3_ MAC  --- 0 AODV 48 [0 ffffffff 0 800] ------- [0:255 -1:255 29 0] [0x2 2 1 [3 0] [4 6]] (REQUEST)
r 0.127400897 _4_ MAC  --- 0 AODV 48 [0 ffffffff 0 800] ------- [0:255 -1:255 29 0] [0x2 2 1 [3 0] [4 6]] (REQUEST)
r 0.127401211 _5_ MAC  --- 0 AODV 48 [0 ffffffff 0 800] ------- [0:255 -1:255 29 0] [0x2 2 1 [3 0] [4 6]] (REQUEST)
r 0.127424327 _1_ RTR  --- 0 AODV 48 [0 ffffffff 0 800] ------- [0:255 -1:255 29 0] [0x2 2 1 [3 0] [4 6]] (REQUEST)
r 0.127425322 _2_ RTR  --- 0 AODV 48 [0 ffffffff 0 800] ------- [0:255 -1:255 29 0] [0x2 2 1 [3 0] [4 6]] (REQUEST)
r 0.127425748 _3_ RTR  --- 0 AODV 48 [0 ffffffff 0 800] ------- [0:255 -1:255 29 0] [0x2 2 1 [3 0] [4 6]] (REQUEST)
r 0.127425897 _4_ RTR  --- 0 AODV 48 [0 ffffffff 0 800] ------- [0:255 -1:255 29 0] [0x2 2 1 [3 0] [4 6]] (REQUEST)
r 0.127426211 _5_ RTR  --- 0 AODV 48 [0 ffffffff 0 800] ------- [0:255 -1:255 29 0] [0x2 2 1 [3 0] [4 6]] (REQUEST)
s 0.127530748 _3_ MAC  --- 0 AODV 106 [0 ffffffff 3 800] ------- [3:255 -1:255 29 0] [0x2 2 1 [0 0] [2 4]] (REQUEST)
s 0.128000000 _1_ AGT  --- 12 cbr 1000 [0 0 0 0] ------- [1:0 4:0 32 0] [8] 0 0
r 0.128000000 _1_ RTR  --- 12 cbr 1000 [0 0 0 0] ------- [1:0 4:0 32 0] [8] 0 0
s 0.128000000 _1_ RTR  --- 12 cbr 1020 [0 0 0 0] ------- [1:0 4:0 30 4] [8] 0 0
r 0.128379082 _4_ MAC  --- 0 AODV 48 [0 ffffffff 3 800] ------- [3:255 -1:255 29 0] [0x2 2 1 [0 0] [2 4]] (REQUEST)
r 0.128379220 _2_ MAC  --- 0 AODV 48 [0 ffffffff 3 800] ------- [3:255 -1:255 29 0] [0x2 2 1 [0 0] [2 4]] (REQUEST)
r 0.128379582 _5_ MAC  --- 0 AODV 48 [0 ffffffff 3 800] ------- [3:255 -1:255 29 0] [0x2 2 1 [0 0] [2 4]] (REQUEST)
r 0.128380172 _1_ MAC  --- 0 AODV 48 [0 ffffffff 3 800] ------- [3:255 -1:255 29 0] [0x2 2 1 [0 0] [2 4]] (REQUEST)
r 0.128380915 _0_ MAC  --- 0 AODV 48 [0 ffffffff 3 800] ------- [3:255 -1:255 29 0] [0x2 2 1 [0 0] [2 4]] (REQUEST)
r 0.128404082 _4_ RTR  --- 0 AODV 48 [0 ffffffff 3 800] ------- [3:255 -1:255 29 0] [0x2 2 1 [0 0] [2 4]] (REQUEST)
r 0.128404220 _2_ RTR  --- 0 AODV 48 [0 ffffffff 3 800] ------- [3:255 -1:255 29 0] [0x2 2 1 [0 0] [2 4]] (REQUEST)
r 0.128404582 _5_ RTR  --- 0 AODV 48 [0 ffffffff 3 800] ------- [3:255 -1:255 29 0] [0x2 2 1 [0 0] [2 4]] (REQUEST)
r 0.128405172 _1_ RTR  --- 0 AODV 48 [0 ffffffff 3 800] ------- [3:255 -1:255 29 0] [0x2 2 1 [0 0] [2 4]] (REQUEST)
r 0.128405915 _0_ RTR  --- 0 AODV 48 [0 ffffffff 3 800] ------- [3:255 -1:255 29 0] [0x2 2 1 [0 0] [2 4]] (REQUEST)
s 0.128449582 _5_ MAC  --- 0 AODV 106 [0 ffffffff 5 800] ------- [5:255 -1:255 29 0] [0x2 2 1 [0 0] [2 4]] (REQUEST)
r 0.129298083 _4_ MAC  --- 0 AODV 48 [0 ffffffff 5 800] ------- [5:255 -1:255 29 0] [0x2 2 1 [0 0] [2 4]] (REQUEST)
r 0.129298416 _3_ MAC  --- 0 AODV 48 [0 ffffffff 5 800] ------- [5:255 -1:255 29 0] [0x2 2 1 [0 0] [2 4]] (REQUEST)
r 0.129298805 _2_ MAC  --- 0 AODV 48 [0 ffffffff 5 800] ------- [5:255 -1:255 29 0] [0x2 2 1 [0 0] [2 4]] (REQUEST)
r 0.129299492 _1_ MAC  --- 0 AODV 48 [0 ffffffff 5 800] ------- [5:255 -1:255 29 0] [0x2 2 1 [0 0] [2 4]] (REQUEST)
r 0.129300211 _0_ MAC  --- 0 AODV 48 [0 ffffffff 5 800] ------- [5:255 -1:255 29 0] [0x2 2 1 [0 0] [2 4]] (REQUEST)
r 0.129323083 _4_ RTR  --- 0 AODV 48 [0 ffffffff 5 800] ------- [5:255 -1:255 29 0] [0x2 2 1 [0 0] [2 4]] (REQUEST)
r 0.129323416 _3_ RTR  --- 0 AODV 48 [0 ffffffff 5 800] ------- [5:255 -1:255 29 0] [0x2 2 1 [0 0] [2 4]] (REQUEST)
r 0.129323805 _2_ RTR  --- 0 AODV 48 [0 ffffffff 5 800] ------- [5:255 -1:255 29 0] [0x2 2 1 [0 0] [2 4]] (REQUEST)
r 0.129324492 _1_ RTR  --- 0 AODV 48 [0 ffffffff 5 800] ------- [5:255 -1:255 29 0] [0x2 2 1 [0 0] [2 4]] (REQUEST)
r 0.129325211 _0_ RTR  --- 0 AODV 48 [0 ffffffff 5 800] ------- [5:255 -1:255 29 0] [0x2 2 1 [0 0] [2 4]] (REQUEST)
s 0.129468083 _4_ MAC  --- 0 ARP 86 [0 ffffffff 4 806] ------- [REQUEST 4/4 0/3]
r 0.130156417 _3_ MAC  --- 0 ARP 28 [0 ffffffff 4 806] ------- [REQUEST 4/4 0/3]
r 0.130156584 _5_ MAC  --- 0 ARP 28 [0 ffffffff 4 806] ------- [REQUEST 4/4 0/3]
r 0.130156829 _2_ MAC  --- 0 ARP 28 [0 ffffffff 4 806] ------- [REQUEST 4/4 0/3]
r 0.130157656 _1_ MAC  --- 0 ARP 28 [0 ffffffff 4 806] ------- [REQUEST 4/4 0/3]