s 0.000000000 _12_ AGT  --- 0 cbr 1000 [0 0 0 0] ------- [12:0 48:0 32 0] [0] 0 0
r 0.000000000 _12_ RTR  --- 0 cbr 1000 [0 0 0 0] ------- [12:0 48:0 32 0] [0] 0 0
s 0.000000000 _39_ AGT  --- 1 cbr 1000 [0 0 0 0] ------- [39:0 9:0 32 0] [0] 0 0
r 0.000000000 _39_ RTR  --- 1 cbr 1000 [0 0 0 0] ------- [39:0 9:0 32 0] [0] 0 0
s 0.000000000 _12_ RTR  --- 0 AODV 48 [0 0 0 0] ------- [12:255 -1:255 30 0] [0x2 1 1 [48 0] [12 4]] (REQUEST)
s 0.000000000 _39_ RTR  --- 0 AODV 48 [0 0 0 0] ------- [39:255 -1:255 30 0] [0x2 1 1 [9 0] [39 4]] (REQUEST)
s 0.000215000 _12_ MAC  --- 0 AODV 106 [0 ffffffff c 800] ------- [12:255 -1:255 30 0] [0x2 1 1 [48 0] [12 4]] (REQUEST)
r 0.001063000 _11_ MAC  --- 0 AODV 48 [0 ffffffff c 800] ------- [12:255 -1:255 30 0] [0x2 1 1 [48 0] [12 4]] (REQUEST)
r 0.001063000 _10_ MAC  --- 0 AODV 48 [0 ffffffff c 800] ------- [12:255 -1:255 30 0] [0x2 1 1 [48 0] [12 4]] (REQUEST)
r 0.001063000 _9_ MAC  --- 0 AODV 48 [0 ffffffff c 800] ------- [12:255 -1:255 30 0] [0x2 1 1 [48 0] [12 4]] (REQUEST)
r 0.001063000 _8_ MAC  --- 0 AODV 48 [0 ffffffff c 800] ------- [12:255 -1:255 30 0] [0x2 1 1 [48 0] [12 4]] (REQUEST)
r 0.001063000 _7_ MAC  --- 0 AODV 48 [0 ffffffff c 800] ------- [12:255 -1:255 30 0] [0x2 1 1 [48 0] [12 4]] (REQUEST)
r 0.001063000 _6_ MAC  --- 0 AODV 48 [0 ffffffff c 800] ------- [12:255 -1:255 30 0] [0x2 1 1 [48 0] [12 4]] (REQUEST)
r 0.001063000 _5_ MAC  --- 0 AODV 48 [0 ffffffff c 800] ------- [12:255 -1:255 30 0] [0x2 1 1 [48 0] [12 4]] (REQUEST)
r 0.001063000 _4_ MAC  --- 0 AODV 48 [0 ffffffff c 800] ------- [12:255 -1:255 30 0] [0x2 1 1 [48 0] [12 4]] (REQUEST)
r 0.001063000 _3_ MAC  --- 0 AODV 48 [0 ffffffff c 800] ------- [12:255 -1:255 30 0] [0x2 1 1 [48 0] [12 4]] (REQUEST)
r 0.001063000 _2_ MAC  --- 0 AODV 48 [0 ffffffff c 800] ------- [12:255 -1:255 30 0] [0x2 1 1 [48 0] [12 4]] (REQUEST)
r 0.001063000 _13_ MAC  --- 0 AODV 48 [0 ffffffff c 800] ------- [12:255 -1:255 30 0] [0x2 1 1 [48 0] [12 4]] (REQUEST)
r 0.001063000 _14_ MAC  --- 0 AODV 48 [0 ffffffff c 800] ------- [12:255 -1:255 30 0] [0x2 1 1 [48 0] [12 4]] (REQUEST)
r 0.001063000 _15_ MAC  --- 0 AODV 48 [0 ffffffff c 800] ------- [12:255 -1:255 30 0] [0x2 1 1 [48 0] [12 4]] (REQUEST)
r 0.001063000 _16_ MAC  --- 0 AODV 48 [0 ffffffff c 800] ------- [12:255 -1:255 30 0] [0x2 1 1 [48 0] [12 4]] (REQUEST)
r 0.001063000 _17_ MAC  --- 0 AODV 48 [0 ffffffff c 800] ------- [12:255 -1:255 30 0] [0x2 1 1 [48 0] [12 4]] (REQUEST)
r 0.001063000 _18_ MAC  --- 0 AODV 48 [0 ffffffff c 800] ------- [12:255 -1:255 30 0] [0x2 1 1 [48 0] [12 4]] (REQUEST)
r 0.001063000 _19_ MAC  --- 0 AODV 48 [0 ffffffff c 800] ------- [12:255 -1:255 30 0] [0x2 1 1 [48 0] [12 4]] (REQUEST)
r 0.001063000 _20_ MAC  --- 0 AODV 48 [0 ffffffff c 800] ------- [12:255 -1:255 30 0] [0x2 1 1 [48 0] [12 4]] (REQUEST)
r 0.001063000 _21_ MAC  --- 0 AODV 48 [0 ffffffff c 800] ------- [12:255 -1:255 30 0] [0x2 1 1 [48 0] [12 4]] (REQUEST)
r 0.001063000 _22_ MAC  --- 0 AODV 48 [0 ffffffff c 800] ------- [12:255 -1:255 30 0] [0x2 1 1 [48 0] [12 4]] (REQUEST)
r 0.001063000 _23_ MAC  --- 0 AODV 48 [0 ffffffff c 800] ------- [12:255 -1:255 30 0] [0x2 1 1 [48 0] [12 4]] (REQUEST)
r 0.001063000 _24_ MAC  --- 0 AODV 48 [0 ffffffff c 800] ------- [12:255 -1:255 30 0] [0x2 1 1 [48 0] [12 4]] (REQUEST)
r 0.001063000 _25_ MAC  --- 0 AODV 48 [0 ffffffff c 800] ------- [12:255 -1:255 30 0] [0x2 1 1 [48 0] [12 4]] (REQUEST)
r 0.001063000 _26_ MAC  --- 0 AODV 48 [0 ffffffff c 800] ------- [12:255 -1:255 30 0] [0x2 1 1 [48 0] [12 4]] (REQUEST)
r 0.001063000 _27_ MAC  --- 0 AODV 48 [0 ffffffff c 800] ------- [12:255 -1:255 30 0] [0x2 1 1 [48 0] [12 4]] (REQUEST)
r 0.001063000 _28_ MAC  --- 0 AODV 48 [0 ffffffff c 800] ------- [12:255 -1:255 30 0] [0x2 1 1 [48 0] [12 4]] (REQUEST)
r 0.001063000 _29_ MAC  --- 0 AODV 48 [0 ffffffff c 800] ------- [12:255 -1:255 30 0] [0x2 1 1 [48 0] [12 4]] (REQUEST)
r 0.001063000 _30_ MAC  --- 0 AODV 48 [0 ffffffff c 800] ------- [12:255 -1:255 30 0] [0x2 1 1 [48 0] [12 4]] (REQUEST)
r 0.001063000 _31_ MAC  --- 0 AODV 48 [0 ffffffff c 800] ------- [12:255 -1:255 30 0] [0x2 1 1 [48 0] [12 4]] (REQUEST)
r 0.001063000 _32_ MAC  --- 0 AODV 48 [0 ffffffff c 800] ------- [12:255 -1:255 30 0] [0x2 1 1 [48 0] [12 4]] (REQUEST)
r 0.001063000 _33_ MAC  --- 0 AODV 48 [0 ffffffff c 800] ------- [12:255 -1:255 30 0] [0x2 1 1 [48 0] [12 4]] (REQUEST)
r 0.001063000 _34_ MAC  --- 0 AODV 48 [0 ffffffff c 800] ------- [12:255 -1:255 30 0] [0x2 1 1 [48 0] [12 4]] (REQUEST)
r 0.001063000 _35_ MAC  --- 0 AODV 48 [0 ffffffff c 800] ------- [12:255 -1:255 30 0] [0x2 1 1 [48 0] [12 4]] (REQUEST)
r 0.001063000 _36_ MAC  --- 0 AODV 48 [0 ffffffff c 800] ------- [12:255 -1:255 30 0] [0x2 1 1 [48 0] [12 4]] (REQUEST)
r 0.001063000 _37_ MAC  --- 0 AODV 48 [0 ffffffff c 800] ------- [12:255 -1:255 30 0] [0x2 1 1 [48 0] [12 4]] (REQUEST)
r 0.001063000 _38_ MAC  --- 0 AODV 48 [0 ffffffff c 800] ------- [12:255 -1:255 30 0] [0x2 1 1 [48 0] [12 4]] (REQUEST)
r 0.001063000 _39_ MAC  --- 0 AODV 48 [0 ffffffff c 800] ------- [12:255 -1:255 30 0] [0x2 1 1 [48 0] [12 4]] (REQUEST)
r 0.001063000 _40_ MAC  --- 0 AODV 48 [0 ffffffff c 800] ------- [12:255 -1:255 30 0] [0x2 1 1 [48 0] [12 4]] (REQUEST)
r 0.001063000 _41_ MAC  --- 0 AODV 48 [0 ffffffff c 800] ------- [12:255 -1:255 30 0] [0x2 1 1 [48 0] [12 4]] (REQUEST)
r 0.001063000 _42_ MAC  --- 0 AODV 48 [0 ffffffff c 800] ------- [12:255 -1:255 30 0] [0x2 1 1 [48 0] [12 4]] (REQUEST)
r 0.001063000 _43_ MAC  --- 0 AODV 48 [0 ffffffff c 800] ------- [12:255 -1:255 30 0] [0x2 1 1 [48 0] [12 4]] (REQUEST)
r 0.001063000 _44_ MAC  --- 0 AODV 48 [0 ffffffff c 800] ------- [12:255 -1:255 30 0] [0x2 1 1 [48 0] [12 4]] (REQUEST)
r 0.001063000 _45_ MAC  --- 0 AODV 48 [0 ffffffff c 800] ------- [12:255 -1:255 30 0] [0x2 1 1 [48 0] [12 4]] (REQUEST)
r 0.001063000 _46_ MAC  --- 0 AODV 48 [0 ffffffff c 800] ------- [12:255 -1:255 30 0] [0x2 1 1 [48 0] [12 4]] (REQUEST)
r 0.001063000 _47_ MAC  --- 0 AODV 48 [0 ffffffff c 800] ------- [12:255 -1:255 30 0] [0x2 1 1 [48 0] [12 4]] (REQUEST)
r 0.001063000 _48_ MAC  --- 0 AODV 48 [0 ffffffff c 800] ------- [12:255 -1:255 30 0] [0x2 1 1 [48 0] [12 4]] (REQUEST)
r 0.001063000 _49_ MAC  --- 0 AODV 48 [0 ffffffff c 800] ------- [12:255 -1:255 30 0] [0x2 1 1 [48 0] [12 4]] (REQUEST)
r 0.001063943 _0_ MAC  --- 0 AODV 48 [0 ffffffff c 800] ------- [12:255 -1:255 30 0] [0x2 1 1 [48 0] [12 4]] (REQUEST)
r 0.001064667 _1_ MAC  --- 0 AODV 48 [0 ffffffff c 800] ------- [12:255 -1:255 30 0] [0x2 1 1 [48 0] [12 4]] (REQUEST)
r 0.001088000 _11_ RTR  --- 0 AODV 48 [0 ffffffff c 800] ------- [12:255 -1:255 30 0] [0x2 1 1 [48 0] [12 4]] (REQUEST)
r 0.001088000 _10_ RTR  --- 0 AODV 48 [0 ffffffff c 800] ------- [12:255 -1:255 30 0] [0x2 1 1 [48 0] [12 4]] (REQUEST)
r 0.001088000 _9_ RTR  --- 0 AODV 48 [0 ffffffff c 800] ------- [12:255 -1:255 30 0] [0x2 1 1 [48 0] [12 4]] (REQUEST)
r 0.001088000 _8_ RTR  --- 0 AODV 48 [0 ffffffff c 800] ------- [12:255 -1:255 30 0] [0x2 1 1 [48 0] [12 4]] (REQUEST)
r 0.001088000 _7_ RTR  --- 0 AODV 48 [0 ffffffff c 800] ------- [12:255 -1:255 30 0] [0x2 1 1 [48 0] [12 4]] (REQUEST)
r 0.001088000 _6_ RTR  --- 0 AODV 48 [0 ffffffff c 800] ------- [12:255 -1:255 30 0] [0x2 1 1 [48 0] [12 4]] (REQUEST)
r 0.001088000 _5_ RTR  --- 0 AODV 48 [0 ffffffff c 800] ------- [12:255 -1:255 30 0] [0x2 1 1 [48 0] [12 4]] (REQUEST)
r 0.001088000 _4_ RTR  --- 0 AODV 48 [0 ffffffff c 800] ------- [12:255 -1:255 30 0] [0x2 1 1 [48 0] [12 4]] (REQUEST)
r 0.001088000 _3_ RTR  --- 0 AODV 48 [0 ffffffff c 800] ------- [12:255 -1:255 30 0] [0x2 1 1 [48 0] [12 4]] (REQUEST)
r 0.001088000 _2_ RTR  --- 0 AODV 48 [0 ffffffff c 800] ------- [12:255 -1:255 30 0] [0x2 1 1 [48 0] [12 4]] (REQUEST)
r 0.001088000 _13_ RTR  --- 0 AODV 48 [0 ffffffff c 800] ------- [12:255 -1:255 30 0] [0x2 1 1 [48 0] [12 4]] (REQUEST)
r 0.001088000 _14_ RTR  --- 0 AODV 48 [0 ffffffff c 800] ------- [12:255 -1:255 30 0] [0x2 1 1 [48 0] [12 4]] (REQUEST)
r 0.001088000 _15_ RTR  --- 0 AODV 48 [0 ffffffff c 800] ------- [12:255 -1:255 30 0] [0x2 1 1 [48 0] [12 4]] (REQUEST)
r 0.001088000 _16_ RTR  --- 0 AODV 48 [0 ffffffff c 800] ------- [12:255 -1:255 30 0] [0x2 1 1 [48 0] [12 4]] (REQUEST)
r 0.001088000 _17_ RTR  --- 0 AODV 48 [0 ffffffff c 800] ------- [12:255 -1:255 30 0] [0x2 1 1 [48 0] [12 4]] (REQUEST)
r 0.001088000 _18_ RTR  --- 0 AODV 48 [0 ffffffff c 800] ------- [12:255 -1:255 30 0] [0x2 1 1 [48 0] [12 4]] (REQUEST)
r 0.001088000 _19_ RTR  --- 0 AODV 48 [0 ffffffff c 800] ------- [12:255 -1:255 30 0] [0x2 1 1 [48 0] [12 4]] (REQUEST)
r 0.001088000 _20_ RTR  --- 0 AODV 48 [0 ffffffff c 800] ------- [12:255 -1:255 30 0] [0x2 1 1 [48 0] [12 4]] (REQUEST)
r 0.001088000 _21_ RTR  --- 0 AODV 48 [0 ffffffff c 800] ------- [12:255 -1:255 30 0] [0x2 1 1 [48 0] [12 4]] (REQUEST)
r 0.001088000 _22_ RTR  --- 0 AODV 48 [0 ffffffff c 800] ------- [12:255 -1:255 30 0] [0x2 1 1 [48 0] [12 4]] (REQUEST)
r 0.001088000 _23_ RTR  --- 0 AODV 48 [0 ffffffff c 800] ------- [12:255 -1:255 30 0] [0x2 1 1 [48 0] [12 4]] (REQUEST)
r 0.001088000 _24_ RTR  --- 0 AODV 48 [0 ffffffff c 800] ------- [12:255 -1:255 30 0] [0x2 1 1 [48 0] [12 4]] (REQUEST)
r 0.001088000 _25_ RTR  --- 0 AODV 48 [0 ffffffff c 800] ------- [12:255 -1:255 30 0] [0x2 1 1 [48 0] [12 4]] (REQUEST)
r 0.001088000 _26_ RTR  --- 0 AODV 48 [0 ffffffff c 800] ------- [12:255 -1:255 30 0] [0x2 1 1 [48 0] [12 4]] (REQUEST)
r 0.001088000 _27_ RTR  --- 0 AODV 48 [0 ffffffff c 800] ------- [12:255 -1:255 30 0] [0x2 1 1 [48 0] [12 4]] (REQUEST)
r 0.001088000 _28_ RTR  --- 0 AODV 48 [0 ffffffff c 800] ------- [12:255 -1:255 30 0] [0x2 1 1 [48 0] [12 4]] (REQUEST)
r 0.001088000 _29_ RTR  --- 0 AODV 48 [0 ffffffff c 800] ------- [12:255 -1:255 30 0] [0x2 1 1 [48 0] [12 4]] (REQUEST)
r 0.001088000 _30_ RTR  --- 0 AODV 48 [0 ffffffff c 800] ------- [12:255 -1:255 30 0] [0x2 1 1 [48 0] [12 4]] (REQUEST)
r 0.001088000 _31_ RTR  --- 0 AODV 48 [0 ffffffff c 800] ------- [12:255 -1:255 30 0] [0x2 1 1 [48 0] [12 4]] (REQUEST)
r 0.001088000 _32_ RTR  --- 0 AODV 48 [0 ffffffff c 800] ------- [12:255 -1:255 30 0] [0x2 1 1 [48 0] [12 4]] (REQUEST)
r 0.001088000 _33_ RTR  --- 0 AODV 48 [0 ffffffff c 800] ------- [12:255 -1:255 30 0] [0x2 1 1 [48 0] [12 4]] (REQUEST)
r 0.001088000 _34_ RTR  --- 0 AODV 48 [0 ffffffff c 800] ------- [12:255 -1:255 30 0] [0x2 1 1 [48 0] [12 4]] (REQUEST)
r 0.001088000 _35_ RTR  --- 0 AODV 48 [0 ffffffff c 800] ------- [12:255 -1:255 30 0] [0x2 1 1 [48 0] [12 4]] (REQUEST)
r 0.001088000 _36_ RTR  --- 0 AODV 48 [0 ffffffff c 800] ------- [12:255 -1:255 30 0] [0x2 1 1 [48 0] [12 4]] (REQUEST)
r 0.001088000 _37_ RTR  --- 0 AODV 48 [0 ffffffff c 800] ------- [12:255 -1:255 30 0] [0x2 1 1 [48 0] [12 4]] (REQUEST)
r 0.001088000 _38_ RTR  --- 0 AODV 48 [0 ffffffff c 800] ------- [12:255 -1:255 30 0] [0x2 1 1 [48 0] [12 4]] (REQUEST)
r 0.001088000 _39_ RTR  --- 0 AODV 48 [0 ffffffff c 800] ------- [12:255 -1:255 30 0] [0x2 1 1 [48 0] [12 4]] (REQUEST)
r 0.001088000 _40_ RTR  --- 0 AODV 48 [0 ffffffff c 800] ------- [12:255 -1:255 30 0] [0x2 1 1 [48 0] [12 4]] (REQUEST)
r 0.001088000 _41_ RTR  --- 0 AODV 48 [0 ffffffff c 800] ------- [12:255 -1:255 30 0] [0x2 1 1 [48 0] [12 4]] (REQUEST)
r 0.001088000 _42_ RTR  --- 0 AODV 48 [0 ffffffff c 800] ------- [12:255 -1:255 30 0] [0x2 1 1 [48 0] [12 4]] (REQUEST)
r 0.001088000 _43_ RTR  --- 0 AODV 48 [0 ffffffff c 800] ------- [12:255 -1:255 30 0] [0x2 1 1 [48 0] [12 4]] (REQUEST)
r 0.001088000 _44_ RTR  --- 0 AODV 48 [0 ffffffff c 800] ------- [12:255 -1:255 30 0] [0x2 1 1 [48 0] [12 4]] (REQUEST)
r 0.001088000 _45_ RTR  --- 0 AODV 48 [0 ffffffff c 800] ------- [12:255 -1:255 30 0] [0x2 1 1 [48 0] [12 4]] (REQUEST)
r 0.001088000 _46_ RTR  --- 0 AODV 48 [0 ffffffff c 800] ------- [12:255 -1:255 30 0] [0x2 1 1 [48 0] [12 4]] (REQUEST)
r 0.001088000 _47_ RTR  --- 0 AODV 48 [0 ffffffff c 800] ------- [12:255 -1:255 30 0] [0x2 1 1 [48 0] [12 4]] (REQUEST)
r 0.001088000 _48_ RTR  --- 0 AODV 48 [0 ffffffff c 800] ------- [12:255 -1:255 30 0] [0x2 1 1 [48 0] [12 4]] (REQUEST)
r 0.001088000 _49_ RTR  --- 0 AODV 48 [0 ffffffff c 800] ------- [12:255 -1:255 30 0] [0x2 1 1 [48 0] [12 4]] (REQUEST)
s 0.001088000 _48_ RTR  --- 0 AODV 44 [0 0 0 0] ------- [48:255 12:255 30 12] [0x4 1 [48 4] 10.000000] (REPLY)
r 0.001088943 _0_ RTR  --- 0 AODV 48 [0 ffffffff c 800] ------- [12:255 -1:255 30 0] [0x2 1 1 [48 0] [12 4]] (REQUEST)
r 0.001089667 _1_ RTR  --- 0 AODV 48 [0 ffffffff c 800] ------- [12:255 -1:255 30 0] [0x2 1 1 [48 0] [12 4]] (REQUEST)
s 0.001153734 _47_ RTR  --- 0 AODV 48 [0 ffffffff c 800] ------- [47:255 -1:255 29 0] [0x2 2 1 [48 0] [12 4]] (REQUEST)
s 0.001278521 _10_ RTR  --- 0 AODV 48 [0 ffffffff c 800] ------- [10:255 -1:255 29 0] [0x2 2 1 [48 0] [12 4]] (REQUEST)
s 0.001443000 _48_ MAC  --- 0 ARP 86 [0 ffffffff 30 806] ------- [REQUEST 48/48 0/12]
s 0.001458397 _6_ RTR  --- 0 AODV 48 [0 ffffffff c 800] ------- [6:255 -1:255 29 0] [0x2 2 1 [48 0] [12 4]] (REQUEST)
s 0.001464771 _24_ RTR  --- 0 AODV 48 [0 ffffffff c 800] ------- [24:255 -1:255 29 0] [0x2 2 1 [48 0] [12 4]] (REQUEST)
s 0.001487791 _49_ RTR  --- 0 AODV 48 [0 ffffffff c 800] ------- [49:255 -1:255 29 0] [0x2 2 1 [48 0] [12 4]] (REQUEST)
s 0.001850738 _39_ RTR  --- 0 AODV 48 [0 ffffffff c 800] ------- [39:255 -1:255 29 0] [0x2 2 1 [48 0] [12 4]] (REQUEST)
s 0.002126945 _2_ RTR  --- 0 AODV 48 [0 ffffffff c 800] ------- [2:255 -1:255 29 0] [0x2 2 1 [48 0] [12 4]] (REQUEST)
r 0.002131000 _47_ MAC  --- 0 ARP 28 [0 ffffffff 30 806] ------- [REQUEST 48/48 0/12]
r 0.002131000 _46_ MAC  --- 0 ARP 28 [0 ffffffff 30 806] ------- [REQUEST 48/48 0/12]
r 0.002131000 _45_ MAC  --- 0 ARP 28 [0 ffffffff 30 806] ------- [REQUEST 48/48 0/12]
r 0.002131000 _44_ MAC  --- 0 ARP 28 [0 ffffffff 30 806] ------- [REQUEST 48/48 0/12]
r 0.002131000 _43_ MAC  --- 0 ARP 28 [0 ffffffff 30 806] ------- [REQUEST 48/48 0/12]
r 0.002131000 _42_ MAC  --- 0 ARP 28 [0 ffffffff 30 806] ------- [REQUEST 48/48 0/12]
r 0.002131000 _41_ MAC  --- 0 ARP 28 [0 ffffffff 30 806] ------- [REQUEST 48/48 0/12]
r 0.002131000 _40_ MAC  --- 0 ARP 28 [0 ffffffff 30 806] ------- [REQUEST 48/48 0/12]
r 0.002131000 _39_ MAC  --- 0 ARP 28 [0 ffffffff 30 806] ------- [REQUEST 48/48 0/12]
r 0.002131000 _38_ MAC  --- 0 ARP 28 [0 ffffffff 30 806] ------- [REQUEST 48/48 0/12]
r 0.002131000 _37_ MAC  --- 0 ARP 28 [0 ffffffff 30 806] ------- [REQUEST 48/48 0/12]
r 0.002131000 _36_ MAC  --- 0 ARP 28 [0 ffffffff 30 806] ------- [REQUEST 48/48 0/12]
r 0.002131000 _35_ MAC  --- 0 ARP 28 [0 ffffffff 30 806] ------- [REQUEST 48/48 0/12]
r 0.002131000 _34_ MAC  --- 0 ARP 28 [0 ffffffff 30 806] ------- [REQUEST 48/48 0/12]
r 0.002131000 _33_ MAC  --- 0 ARP 28 [0 ffffffff 30 806] ------- [REQUEST 48/48 0/12]
r 0.002131000 _32_ MAC  --- 0 ARP 28 [0 ffffffff 30 806] ------- [REQUEST 48/48 0/12]
r 0.002131000 _31_ MAC  --- 0 ARP 28 [0 ffffffff 30 806] ------- [REQUEST 48/48 0/12]
r 0.002131000 _30_ MAC  --- 0 ARP 28 [0 ffffffff 30 806] ------- [REQUEST 48/48 0/12]
r 0.002131000 _29_ MAC  --- 0 ARP 28 [0 ffffffff 30 806] ------- [REQUEST 48/48 0/12]
r 0.002131000 _28_ MAC  --- 0 ARP 28 [0 ffffffff 30 806] ------- [REQUEST 48/48 0/12]
r 0.002131000 _27_ MAC  --- 0 ARP 28 [0 ffffffff 30 806] ------- [REQUEST 48/48 0/12]
r 0.002131000 _26_ MAC  --- 0 ARP 28 [0 ffffffff 30 806] ------- [REQUEST 48/48 0/12]
r 0.002131000 _25_ MAC  --- 0 ARP 28 [0 ffffffff 30 806] ------- [REQUEST 48/48 0/12]
r 0.002131000 _24_ MAC  --- 0 ARP 28 [0 ffffffff 30 806] ------- [REQUEST 48/48 0/12]
r 0.002131000 _23_ MAC  --- 0 ARP 28 [0 ffffffff 30 806] ------- [REQUEST 48/48 0/12]
r 0.002131000 _22_ MAC  --- 0 ARP 28 [0 ffffffff 30 806] ------- [REQUEST 48/48 0/12]
r 0.002131000 _21_ MAC  --- 0 ARP 28 [0 ffffffff 30 806] ------- [REQUEST 48/48 0/12]
r 0.002131000 _20_ MAC  --- 0 ARP 28 [0 ffffffff 30 806] ------- [REQUEST 48/48 0/12]
r 0.002131000 _19_ MAC  --- 0 ARP 28 [0 ffffffff 30 806] ------- [REQUEST 48/48 0/12]
r 0.002131000 _18_ MAC  --- 0 ARP 28 [0 ffffffff 30 806] ------- [REQUEST 48/48 0/12]
r 0.002131000 _17_ MAC  --- 0 ARP 28 [0 ffffffff 30 806] ------- [REQUEST 48/48 0/12]
r 0.002131000 _16_ MAC  --- 0 ARP 28 [0 ffffffff 30 806] ------- [REQUEST 48/48 0/12]
r 0.002131000 _15_ MAC  --- 0 ARP 28 [0 ffffffff 30 806] ------- [REQUEST 48/48 0/12]
r 0.002131000 _14_ MAC  --- 0 ARP 28 [0 ffffffff 30 806] ------- [REQUEST 48/48 0/12]
r 0.002131000 _13_ MAC  --- 0 ARP 28 [0 ffffffff 30 806] ------- [REQUEST 48/48 0/12]
r 0.002131000 _12_ MAC  --- 0 ARP 28 [0 ffffffff 30 806] ------- [REQUEST 48/48 0/12]
r 0.002131000 _11_ MAC  --- 0 ARP 28 [0 ffffffff 30 806] ------- [REQUEST 48/48 0/12]
r 0.002131000 _10_ MAC  --- 0 ARP 28 [0 ffffffff 30 806] ------- [REQUEST 48/48 0/12]
r 0.002131000 _9_ MAC  --- 0 ARP 28 [0 ffffffff 30 806] ------- [REQUEST 48/48 0/12]
r 0.002131000 _8_ MAC  --- 0 ARP 28 [0 ffffffff 30 806] ------- [REQUEST 48/48 0/12]
r 0.002131000 _7_ MAC  --- 0 ARP 28 [0 ffffffff 30 806] ------- [REQUEST 48/48 0/12]
r 0.002131000 _6_ MAC  --- 0 ARP 28 [0 ffffffff 30 806] ------- [REQUEST 48/48 0/12]
r 0.002131000 _5_ MAC  --- 0 ARP 28 [0 ffffffff 30 806] ------- [REQUEST 48/48 0/12]
r 0.002131000 _4_ MAC  --- 0 ARP 28 [0 ffffffff 30 806] ------- [REQUEST 48/48 0/12]
r 0.002131000 _3_ MAC  --- 0 ARP 28 [0 ffffffff 30 806] ------- [REQUEST 48/48 0/12]
r 0.002131000 _2_ MAC  --- 0 ARP 28 [0 ffffffff 30 806] ------- [REQUEST 48/48 0/12]
r 0.002131000 _49_ MAC  --- 0 ARP 28 [0 ffffffff 30 806] ------- [REQUEST 48/48 0/12]
r 0.002131943 _0_ MAC  --- 0 ARP 28 [0 ffffffff 30 806] ------- [REQUEST 48/48 0/12]
r 0.002132667 _1_ MAC  --- 0 ARP 28 [0 ffffffff 30 806] ------- [REQUEST 48/48 0/12]
s 0.002188760 _41_ RTR  --- 0 AODV 48 [0 ffffffff c 800] ------- [41:255 -1:255 29 0] [0x2 2 1 [48 0] [12 4]] (REQUEST)
s 0.002200697 _28_ RTR  --- 0 AODV 48 [0 ffffffff c 800] ------- [28:255 -1:255 29 0] [0x2 2 1 [48 0] [12 4]] (REQUEST)
s 0.002281000 _39_ MAC  --- 0 AODV 106 [0 ffffffff 27 800] ------- [39:255 -1:255 30 0] [0x2 1 1 [9 0] [39 4]] (REQUEST)
s 0.002828144 _3_ RTR  --- 0 AODV 48 [0 ffffffff c 800] ------- [3:255 -1:255 29 0] [0x2 2 1 [48 0] [12 4]] (REQUEST)
r 0.003129000 _38_ MAC  --- 0 AODV 48 [0 ffffffff 27 800] ------- [39:255 -1:255 30 0] [0x2 1 1 [9 0] [39 4]] (REQUEST)
r 0.003129000 _37_ MAC  --- 0 AODV 48 [0 ffffffff 27 800] ------- [39:255 -1:255 30 0] [0x2 1 1 [9 0] [39 4]] (REQUEST)
r 0.003129000 _36_ MAC  --- 0 AODV 48 [0 ffffffff 27 800] ------- [39:255 -1:255 30 0] [0x2 1 1 [9 0] [39 4]] (REQUEST)
r 0.003129000 _35_ MAC  --- 0 AODV 48 [0 ffffffff 27 800] ------- [39:255 -1:255 30 0] [0x2 1 1 [9 0] [39 4]] (REQUEST)
r 0.003129000 _34_ MAC  --- 0 AODV 48 [0 ffffffff 27 800] ------- [39:255 -1:255 30 0] [0x2 1 1 [9 0] [39 4]] (REQUEST)
r 0.003129000 _33_ MAC  --- 0 AODV 48 [0 ffffffff 27 800] ------- [39:255 -1:255 30 0] [0x2 1 1 [9 0] [39 4]] (REQUEST)
r 0.003129000 _32_ MAC  --- 0 AODV 48 [0 ffffffff 27 800] ------- [39:255 -1:255 30 0] [0x2 1 1 [9 0] [39 4]] (REQUEST)
r 0.003129000 _31_ MAC  --- 0 AODV 48 [0 ffffffff 27 800] ------- [39:255 -1:255 30 0] [0x2 1 1 [9 0] [39 4]] (REQUEST)
r 0.003129000 _30_ MAC  --- 0 AODV 48 [0 ffffffff 27 800] ------- [39:255 -1:255 30 0] [0x2 1 1 [9 0] [39 4]] (REQUEST)
r 0.003129000 _29_ MAC  --- 0 AODV 48 [0 ffffffff 27 800] ------- [39:255 -1:255 30 0] [0x2 1 1 [9 0] [39 4]] (REQUEST)
r 0.003129000 _28_ MAC  --- 0 AODV 48 [0 ffffffff 27 800] ------- [39:255 -1:255 30 0] [0x2 1 1 [9 0] [39 4]] (REQUEST)
r 0.003129000 _27_ MAC  --- 0 AODV 48 [0 ffffffff 27 800] ------- [39:255 -1:255 30 0] [0x2 1 1 [9 0] [39 4]] (REQUEST)
r 0.003129000 _26_ MAC  --- 0 AODV 48 [0 ffffffff 27 800] ------- [39:255 -1:255 30 0] [0x2 1 1 [9 0] [39 4]] (REQUEST)
r 0.003129000 _25_ MAC  --- 0 AODV 48 [0 ffffffff 27 800] ------- [39:255 -1:255 30 0] [0x2 1 1 [9 0] [39 4]] (REQUEST)
r 0.003129000 _24_ MAC  --- 0 AODV 48 [0 ffffffff 27 800] ------- [39:255 -1:255 30 0] [0x2 1 1 [9 0] [39 4]] (REQUEST)
r 0.003129000 _23_ MAC  --- 0 AODV 48 [0 ffffffff 27 800] ------- [39:255 -1:255 30 0] [0x2 1 1 [9 0] [39 4]] (REQUEST)
r 0.003129000 _22_ MAC  --- 0 AODV 48 [0 ffffffff 27 800] ------- [39:255 -1:255 30 0] [0x2 1 1 [9 0] [39 4]] (REQUEST)
r 0.003129000 _21_ MAC  --- 0 AODV 48 [0 ffffffff 27 800] ------- [39:255 -1:255 30 0] [0x2 1 1 [9 0] [39 4]] (REQUEST)
r 0.003129000 _20_ MAC  --- 0 AODV 48 [0 ffffffff 27 800] ------- [39:255 -1:255 30 0] [0x2 1 1 [9 0] [39 4]] (REQUEST)
r 0.003129000 _19_ MAC  --- 0 AODV 48 [0 ffffffff 27 800] ------- [39:255 -1:255 30 0] [0x2 1 1 [9 0] [39 4]] (REQUEST)
r 0.003129000 _18_ MAC  --- 0 AODV 48 [0 ffffffff 27 800] ------- [39:255 -1:255 30 0] [0x2 1 1 [9 0] [39 4]] (REQUEST)
r 0.003129000 _17_ MAC  --- 0 AODV 48 [0 ffffffff 27 800] ------- [39:255 -1:255 30 0] [0x2 1 1 [9 0] [39 4]] (REQUEST)
r 0.003129000 _16_ MAC  --- 0 AODV 48 [0 ffffffff 27 800] ------- [39:255 -1:255 30 0] [0x2 1 1 [9 0] [39 4]] (REQUEST)
r 0.003129000 _15_ MAC  --- 0 AODV 48 [0 ffffffff 27 800] ------- [39:255 -1:255 30 0] [0x2 1 1 [9 0] [39 4]] (REQUEST)
r 0.003129000 _14_ MAC  --- 0 AODV 48 [0 ffffffff 27 800] ------- [39:255 -1:255 30 0] [0x2 1 1 [9 0] [39 4]] (REQUEST)
r 0.003129000 _13_ MAC  --- 0 AODV 48 [0 ffffffff 27 800] ------- [39:255 -1:255 30 0] [0x2 1 1 [9 0] [39 4]] (REQUEST)
r 0.003129000 _12_ MAC  --- 0 AODV 48 [0 ffffffff 27 800] ------- [39:255 -1:255 30 0] [0x2 1 1 [9 0] [39 4]] (REQUEST)
r 0.003129000 _11_ MAC  --- 0 AODV 48 [0 ffffffff 27 800] ------- [39:255 -1:255 30 0] [0x2 1 1 [9 0] [39 4]] (REQUEST)
r 0.003129000 _10_ MAC  --- 0 AODV 48 [0 ffffffff 27 800] ------- [39:255 -1:255 30 0] [0x2 1 1 [9 0] [39 4]] (REQUEST)
r 0.003129000 _9_ MAC  --- 0 AODV 48 [0 ffffffff 27 800] ------- [39:255 -1:255 30 0] [0x2 1 1 [9 0] [39 4]] (REQUEST)
r 0.003129000 _8_ MAC  --- 0 AODV 48 [0 ffffffff 27 800] ------- [39:255 -1:255 30 0] [0x2 1 1 [9 0] [39 4]] (REQUEST)
r 0.003129000 _7_ MAC  --- 0 AODV 48 [0 ffffffff 27 800] ------- [39:255 -1:255 30 0] [0x2 1 1 [9 0] [39 4]] (REQUEST)
r 0.003129000 _6_ MAC  --- 0 AODV 48 [0 ffffffff 27 800] ------- [39:255 -1:255 30 0] [0x2 1 1 [9 0] [39 4]] (REQUEST)
r 0.003129000 _5_ MAC  --- 0 AODV 48 [0 ffffffff 27 800] ------- [39:255 -1:255 30 0] [0x2 1 1 [9 0] [39 4]] (REQUEST)
r 0.003129000 _4_ MAC  --- 0 AODV 48 [0 ffffffff 27 800] ------- [39:255 -1:255 30 0] [0x2 1 1 [9 0] [39 4]] (REQUEST)
r 0.003129000 _3_ MAC  --- 0 AODV 48 [0 ffffffff 27 800] ------- [39:255 -1:255 30 0] [0x2 1 1 [9 0] [39 4]] (REQUEST)
r 0.003129000 _2_ MAC  --- 0 AODV 48 [0 ffffffff 27 800] ------- [39:255 -1:255 30 0] [0x2 1 1 [9 0] [39 4]] (REQUEST)
r 0.003129000 _40_ MAC  --- 0 AODV 48 [0 ffffffff 27 800] ------- [39:255 -1:255 30 0] [0x2 1 1 [9 0] [39 4]] (REQUEST)
r 0.003129000 _41_ MAC  --- 0 AODV 48 [0 ffffffff 27 800] ------- [39:255 -1:255 30 0] [0x2 1 1 [9 0] [39 4]] (REQUEST)
r 0.003129000 _42_ MAC  --- 0 AODV 48 [0 ffffffff 27 800] ------- [39:255 -1:255 30 0] [0x2 1 1 [9 0] [39 4]] (REQUEST)
r 0.003129000 _43_ MAC  --- 0 AODV 48 [0 ffffffff 27 800] ------- [39:255 -1:255 30 0] [0x2 1 1 [9 0] [39 4]] (REQUEST)
r 0.003129000 _44_ MAC  --- 0 AODV 48 [0 ffffffff 27 800] ------- [39:255 -1:255 30 0] [0x2 1 1 [9 0] [39 4]] (REQUEST)
r 0.003129000 _45_ MAC  --- 0 AODV 48 [0 ffffffff 27 800] ------- [39:255 -1:255 30 0] [0x2 1 1 [9 0] [39 4]] (REQUEST)
r 0.003129000 _46_ MAC  --- 0 AODV 48 [0 ffffffff 27 800] ------- [39:255 -1:255 30 0] [0x2 1 1 [9 0] [39 4]] (REQUEST)
r 0.003129000 _47_ MAC  --- 0 AODV 48 [0 ffffffff 27 800] ------- [39:255 -1:255 30 0] [0x2 1 1 [9 0] [39 4]] (REQUEST)
r 0.003129000 _48_ MAC  --- 0 AODV 48 [0 ffffffff 27 800] ------- [39:255 -1:255 30 0] [0x2 1 1 [9 0] [39 4]] (REQUEST)
r 0.003129000 _49_ MAC  --- 0 AODV 48 [0 ffffffff 27 800] ------- [39:255 -1:255 30 0] [0x2 1 1 [9 0] [39 4]] (REQUEST)
r 0.003129943 _0_ MAC  --- 0 AODV 48 [0 ffffffff 27 800] ------- [39:255 -1:255 30 0] [0x2 1 1 [9 0] [39 4]] (REQUEST)
r 0.003130667 _1_ MAC  --- 0 AODV 48 [0 ffffffff 27 800] ------- [39:255 -1:255 30 0] [0x2 1 1 [9 0] [39 4]] (REQUEST)
r 0.003154000 _38_ RTR  --- 0 AODV 48 [0 ffffffff 27 800] ------- [39:255 -1:255 30 0] [0x2 1 1 [9 0] [39 4]] (REQUEST)
r 0.003154000 _37_ RTR  --- 0 AODV 48 [0 ffffffff 27 800] ------- [39:255 -1:255 30 0] [0x2 1 1 [9 0] [39 4]] (REQUEST)
r 0.003154000 _36_ RTR  --- 0 AODV 48 [0 ffffffff 27 800] ------- [39:255 -1:255 30 0] [0x2 1 1 [9 0] [39 4]] (REQUEST)
r 0.003154000 _35_ RTR  --- 0 AODV 48 [0 ffffffff 27 800] ------- [39:255 -1:255 30 0] [0x2 1 1 [9 0] [39 4]] (REQUEST)
r 0.003154000 _34_ RTR  --- 0 AODV 48 [0 ffffffff 27 800] ------- [39:255 -1:255 30 0] [0x2 1 1 [9 0] [39 4]] (REQUEST)
r 0.003154000 _33_ RTR  --- 0 AODV 48 [0 ffffffff 27 800] ------- [39:255 -1:255 30 0] [0x2 1 1 [9 0] [39 4]] (REQUEST)
r 0.003154000 _32_ RTR  --- 0 AODV 48 [0 ffffffff 27 800] ------- [39:255 -1:255 30 0] [0x2 1 1 [9 0] [39 4]] (REQUEST)
r 0.003154000 _31_ RTR  --- 0 AODV 48 [0 ffffffff 27 800] ------- [39:255 -1:255 30 0] [0x2 1 1 [9 0] [39 4]] (REQUEST)
r 0.003154000 _30_ RTR  --- 0 AODV 48 [0 ffffffff 27 800] ------- [39:255 -1:255 30 0] [0x2 1 1 [9 0] [39 4]] (REQUEST)
r 0.003154000 _29_ RTR  --- 0 AODV 48 [0 ffffffff 27 800] ------- [39:255 -1:255 30 0] [0x2 1 1 [9 0] [39 4]] (REQUEST)
r 0.003154000 _28_ RTR  --- 0 AODV 48 [0 ffffffff 27 800] ------- [39:255 -1:255 30 0] [0x2 1 1 [9 0] [39 4]] (REQUEST)
r 0.003154000 _27_ RTR  --- 0 AODV 48 [0 ffffffff 27 800] ------- [39:255 -1:255 30 0] [0x2 1 1 [9 0] [39 4]] (REQUEST)
r 0.003154000 _26_ RTR  --- 0 AODV 48 [0 ffffffff 27 800] ------- [39:255 -1:255 30 0] [0x2 1 1 [9 0] [39 4]] (REQUEST)
r 0.003154000 _25_ RTR  --- 0 AODV 48 [0 ffffffff 27 800] ------- [39:255 -1:255 30 0] [0x2 1 1 [9 0] [39 4]] (REQUEST)
r 0.003154000 _24_ RTR  --- 0 AODV 48 [0 ffffffff 27 800] ------- [39:255 -1:255 30 0] [0x2 1 1 [9 0] [39 4]] (REQUEST)
r 0.003154000 _23_ RTR  --- 0 AODV 48 [0 ffffffff 27 800] ------- [39:255 -1:255 30 0] [0x2 1 1 [9 0] [39 4]] (REQUEST)
r 0.003154000 _22_ RTR  --- 0 AODV 48 [0 ffffffff 27 800] ------- [39:255 -1:255 30 0] [0x2 1 1 [9 0] [39 4]] (REQUEST)
r 0.003154000 _21_ RTR  --- 0 AODV 48 [0 ffffffff 27 800] ------- [39:255 -1:255 30 0] [0x2 1 1 [9 0] [39 4]] (REQUEST)
r 0.003154000 _20_ RTR  --- 0 AODV 48 [0 ffffffff 27 800] ------- [39:255 -1:255 30 0] [0x2 1 1 [9 0] [39 4]] (REQUEST)
r 0.003154000 _19_ RTR  --- 0 AODV 48 [0 ffffffff 27 800] ------- [39:255 -1:255 30 0] [0x2 1 1 [9 0] [39 4]] (REQUEST)
r 0.003154000 _18_ RTR  --- 0 AODV 48 [0 ffffffff 27 800] ------- [39:255 -1:255 30 0] [0x2 1 1 [9 0] [39 4]] (REQUEST)
r 0.003154000 _17_ RTR  --- 0 AODV 48 [0 ffffffff 27 800] ------- [39:255 -1:255 30 0] [0x2 1 1 [9 0] [39 4]] (REQUEST)
r 0.003154000 _16_ RTR  --- 0 AODV 48 [0 ffffffff 27 800] ------- [39:255 -1:255 30 0] [0x2 1 1 [9 0] [39 4]] (REQUEST)
r 0.003154000 _15_ RTR  --- 0 AODV 48 [0 ffffffff 27 800] ------- [39:255 -1:255 30 0] [0x2 1 1 [9 0] [39 4]] (REQUEST)
r 0.003154000 _14_ RTR  --- 0 AODV 48 [0 ffffffff 27 800] ------- [39:255 -1:255 30 0] [0x2 1 1 [9 0] [39 4]] (REQUEST)
r 0.003154000 _13_ RTR  --- 0 AODV 48 [0 ffffffff 27 800] ------- [39:255 -1:255 30 0] [0x2 1 1 [9 0] [39 4]] (REQUEST)
r 0.003154000 _12_ RTR  --- 0 AODV 48 [0 ffffffff 27 800] ------- [39:255 -1:255 30 0] [0x2 1 1 [9 0] [39 4]] (REQUEST)
r 0.003154000 _11_ RTR  --- 0 AODV 48 [0 ffffffff 27 800] ------- [39:255 -1:255 30 0] [0x2 1 1 [9 0] [39 4]] (REQUEST)
r 0.003154000 _10_ RTR  --- 0 AODV 48 [0 ffffffff 27 800] ------- [39:255 -1:255 30 0] [0x2 1 1 [9 0] [39 4]] (REQUEST)
r 0.003154000 _9_ RTR  --- 0 AODV 48 [0 ffffffff 27 800] ------- [39:255 -1:255 30 0] [0x2 1 1 [9 0] [39 4]] (REQUEST)
r 0.003154000 _8_ RTR  --- 0 AODV 48 [0 ffffffff 27 800] ------- [39:255 -1:255 30 0] [0x2 1 1 [9 0] [39 4]] (REQUEST)
r 0.003154000 _7_ RTR  --- 0 AODV 48 [0 ffffffff 27 800] ------- [39:255 -1:255 30 0] [0x2 1 1 [9 0] [39 4]] (REQUEST)
r 0.003154000 _6_ RTR  --- 0 AODV 48 [0 ffffffff 27 800] ------- [39:255 -1:255 30 0] [0x2 1 1 [9 0] [39 4]] (REQUEST)
r 0.003154000 _5_ RTR  --- 0 AODV 48 [0 ffffffff 27 800] ------- [39:255 -1:255 30 0] [0x2 1 1 [9 0] [39 4]] (REQUEST)
r 0.003154000 _4_ RTR  --- 0 AODV 48 [0 ffffffff 27 800] ------- [39:255 -1:255 30 0] [0x2 1 1 [9 0] [39 4]] (REQUEST)
r 0.003154000 _3_ RTR  --- 0 AODV 48 [0 ffffffff 27 800] ------- [39:255 -1:255 30 0] [0x2 1 1 [9 0] [39 4]] (REQUEST)
r 0.003154000 _2_ RTR  --- 0 AODV 48 [0 ffffffff 27 800] ------- [39:255 -1:255 30 0] [0x2 1 1 [9 0] [39 4]] (REQUEST)
r 0.003154000 _40_ RTR  --- 0 AODV 48 [0 ffffffff 27 800] ------- [39:255 -1:255 30 0] [0x2 1 1 [9 0] [39 4]] (REQUEST)
r 0.003154000 _41_ RTR  --- 0 AODV 48 [0 ffffffff 27 800] ------- [39:255 -1:255 30 0] [0x2 1 1 [9 0] [39 4]] (REQUEST)
r 0.003154000 _42_ RTR  --- 0 AODV 48 [0 ffffffff 27 800] ------- [39:255 -1:255 30 0] [0x2 1 1 [9 0] [39 4]] (REQUEST)
r 0.003154000 _43_ RTR  --- 0 AODV 48 [0 ffffffff 27 800] ------- [39:255 -1:255 30 0] [0x2 1 1 [9 0] [39 4]] (REQUEST)
r 0.003154000 _44_ RTR  --- 0 AODV 48 [0 ffffffff 27 800] ------- [39:255 -1:255 30 0] [0x2 1 1 [9 0] [39 4]] (REQUEST)
r 0.003154000 _45_ RTR  --- 0 AODV 48 [0 ffffffff 27 800] ------- [39:255 -1:255 30 0] [0x2 1 1 [9 0] [39 4]] (REQUEST)
r 0.003154000 _46_ RTR  --- 0 AODV 48 [0 ffffffff 27 800] ------- [39:255 -1:255 30 0] [0x2 1 1 [9 0] [39 4]] (REQUEST)
r 0.003154000 _47_ RTR  --- 0 AODV 48 [0 ffffffff 27 800] ------- [39:255 -1:255 30 0] [0x2 1 1 [9 0] [39 4]] (REQUEST)
r 0.003154000 _48_ RTR  --- 0 AODV 48 [0 ffffffff 27 800] ------- [39:255 -1:255 30 0] [0x2 1 1 [9 0] [39 4]] (REQUEST)
r 0.003154000 _49_ RTR  --- 0 AODV 48 [0 ffffffff 27 800] ------- [39:255 -1:255 30 0] [0x2 1 1 [9 0] [39 4]] (REQUEST)
s 0.003154000 _9_ RTR  --- 0 AODV 44 [0 0 0 0] ------- [9:255 39:255 30 39] [0x4 1 [9 4] 10.000000] (REPLY)
r 0.003154943 _0_ RTR  --- 0 AODV 48 [0 ffffffff 27 800] ------- [39:255 -1:255 30 0] [0x2 1 1 [9 0] [39 4]] (REQUEST)
r 0.003155667 _1_ RTR  --- 0 AODV 48 [0 ffffffff 27 800] ------- [39:255 -1:255 30 0] [0x2 1 1 [9 0] [39 4]] (REQUEST)