s 0.000000000 _1_ AGT  --- 0 cbr 1000 [0 0 0 0] ------- [1:0 4:0 32 0] [0] 0 0
r 0.000000000 _1_ RTR  --- 0 cbr 1000 [0 0 0 0] ------- [1:0 4:0 32 0] [0] 0 0
s 0.000000000 _1_ RTR  --- 0 AODV 48 [0 0 0 0] ------- [1:255 -1:255 30 0] [0x2 1 1 [4 0] [1 4]] (REQUEST)
s 0.000475000 _1_ MAC  --- 0 AODV 106 [0 ffffffff 1 800] ------- [1:255 -1:255 30 0] [0x2 1 1 [4 0] [1 4]] (REQUEST)
r 0.001323745 _0_ MAC  --- 0 AODV 48 [0 ffffffff 1 800] ------- [1:255 -1:255 30 0] [0x2 1 1 [4 0] [1 4]] (REQUEST)
r 0.001324014 _2_ MAC  --- 0 AODV 48 [0 ffffffff 1 800] ------- [1:255 -1:255 30 0] [0x2 1 1 [4 0] [1 4]] (REQUEST)
r 0.001324424 _3_ MAC  --- 0 AODV 48 [0 ffffffff 1 800] ------- [1:255 -1:255 30 0] [0x2 1 1 [4 0] [1 4]] (REQUEST)
r 0.001324572 _4_ MAC  --- 0 AODV 48 [0 ffffffff 1 800] ------- [1:255 -1:255 30 0] [0x2 1 1 [4 0] [1 4]] (REQUEST)
r 0.001324909 _5_ MAC  --- 0 AODV 48 [0 ffffffff 1 800] ------- [1:255 -1:255 30 0] [0x2 1 1 [4 0] [1 4]] (REQUEST)
r 0.001348745 _0_ RTR  --- 0 AODV 48 [0 ffffffff 1 800] ------- [1:255 -1:255 30 0] [0x2 1 1 [4 0] [1 4]] (REQUEST)
r 0.001349014 _2_ RTR  --- 0 AODV 48 [0 ffffffff 1 800] ------- [1:255 -1:255 30 0] [0x2 1 1 [4 0] [1 4]] (REQUEST)
r 0.001349424 _3_ RTR  --- 0 AODV 48 [0 ffffffff 1 800] ------- [1:255 -1:255 30 0] [0x2 1 1 [4 0] [1 4]] (REQUEST)
r 0.001349572 _4_ RTR  --- 0 AODV 48 [0 ffffffff 1 800] ------- [1:255 -1:255 30 0] [0x2 1 1 [4 0] [1 4]] (REQUEST)
s 0.001349572 _4_ RTR  --- 0 AODV 44 [0 0 0 0] ------- [4:255 1:255 30 1] [0x4 1 [4 4] 10.000000] (REPLY)
r 0.001349909 _5_ RTR  --- 0 AODV 48 [0 ffffffff 1 800] ------- [1:255 -1:255 30 0] [0x2 1 1 [4 0] [1 4]] (REQUEST)
s 0.001420107 _0_ RTR  --- 0 AODV 48 [0 ffffffff 1 800] ------- [0:255 -1:255 29 0] [0x2 2 1 [4 0] [1 4]] (REQUEST)
s 0.001474662 _2_ RTR  --- 0 AODV 48 [0 ffffffff 1 800] ------- [2:255 -1:255 29 0] [0x2 2 1 [4 0] [1 4]] (REQUEST)
s 0.001764572 _4_ MAC  --- 0 ARP 86 [0 ffffffff 4 806] ------- [REQUEST 4/4 0/1]
r 0.002452906 _3_ MAC  --- 0 ARP 28 [0 ffffffff 4 806] ------- [REQUEST 4/4 0/1]
r 0.002453073 _5_ MAC  --- 0 ARP 28 [0 ffffffff 4 806] ------- [REQUEST 4/4 0/1]
r 0.002453318 _2_ MAC  --- 0 ARP 28 [0 ffffffff 4 806] ------- [REQUEST 4/4 0/1]
r 0.002454145 _1_ MAC  --- 0 ARP 28 [0 ffffffff 4 806] ------- [REQUEST 4/4 0/1]
r 0.002454888 _0_ MAC  --- 0 ARP 28 [0 ffffffff 4 806] ------- [REQUEST 4/4 0/1]
s 0.002544888 _0_ MAC  --- 0 AODV 106 [0 ffffffff 0 800] ------- [0:255 -1:255 29 0] [0x2 2 1 [4 0] [1 4]] (REQUEST)
r 0.003393633 _1_ MAC  --- 0 AODV 48 [0 ffffffff 0 800] ------- [0:255 -1:255 29 0] [0x2 2 1 [4 0] [1 4]] (REQUEST)
r 0.003394628 _2_ MAC  --- 0 AODV 48 [0 ffffffff 0 800] ------- [0:255 -1:255 29 0] [0x2 2 1 [4 0] [1 4]] (REQUEST)
r 0.003395054 _3_ MAC  --- 0 AODV 48 [0 ffffffff 0 800] ------- [0:255 -1:255 29 0] [0x2 2 1 [4 0] [1 4]] (REQUEST)
r 0.003395203 _4_ MAC  --- 0 AODV 48 [0 ffffffff 0 800] ------- [0:255 -1:255 29 0] [0x2 2 1 [4 0] [1 4]] (REQUEST)
r 0.003395517 _5_ MAC  --- 0 AODV 48 [0 ffffffff 0 800] ------- [0:255 -1:255 29 0] [0x2 2 1 [4 0] [1 4]] (REQUEST)
r 0.003418633 _1_ RTR  --- 0 AODV 48 [0 ffffffff 0 800] ------- [0:255 -1:255 29 0] [0x2 2 1 [4 0] [1 4]] (REQUEST)
r 0.003419628 _2_ RTR  --- 0 AODV 48 [0 ffffffff 0 800] ------- [0:255 -1:255 29 0] [0x2 2 1 [4 0] [1 4]] (REQUEST)
r 0.003420054 _3_ RTR  --- 0 AODV 48 [0 ffffffff 0 800] ------- [0:255 -1:255 29 0] [0x2 2 1 [4 0] [1 4]] (REQUEST)
r 0.003420203 _4_ RTR  --- 0 AODV 48 [0 ffffffff 0 800] ------- [0:255 -1:255 29 0] [0x2 2 1 [4 0] [1 4]] (REQUEST)
r 0.003420517 _5_ RTR  --- 0 AODV 48 [0 ffffffff 0 800] ------- [0:255 -1:255 29 0] [0x2 2 1 [4 0] [1 4]] (REQUEST)
s 0.003644628 _2_ MAC  --- 0 AODV 106 [0 ffffffff 2 800] ------- [2:255 -1:255 29 0] [0x2 2 1 [4 0] [1 4]] (REQUEST)
s 0.004278740 _5_ RTR  --- 0 AODV 48 [0 ffffffff 1 800] ------- [5:255 -1:255 29 0] [0x2 2 1 [4 0] [1 4]] (REQUEST)
r 0.004493099 _3_ MAC  --- 0 AODV 48 [0 ffffffff 2 800] ------- [2:255 -1:255 29 0] [0x2 2 1 [4 0] [1 4]] (REQUEST)
r 0.004493373 _4_ MAC  --- 0 AODV 48 [0 ffffffff 2 800] ------- [2:255 -1:255 29 0] [0x2 2 1 [4 0] [1 4]] (REQUEST)
r 0.004493642 _1_ MAC  --- 0 AODV 48 [0 ffffffff 2 800] ------- [2:255 -1:255 29 0] [0x2 2 1 [4 0] [1 4]] (REQUEST)
r 0.004493851 _5_ MAC  --- 0 AODV 48 [0 ffffffff 2 800] ------- [2:255 -1:255 29 0] [0x2 2 1 [4 0] [1 4]] (REQUEST)
r 0.004494368 _0_ MAC  --- 0 AODV 48 [0 ffffffff 2 800] ------- [2:255 -1:255 29 0] [0x2 2 1 [4 0] [1 4]] (REQUEST)
r 0.004518099 _3_ RTR  --- 0 AODV 48 [0 ffffffff 2 800] ------- [2:255 -1:255 29 0] [0x2 2 1 [4 0] [1 4]] (REQUEST)
r 0.004518373 _4_ RTR  --- 0 AODV 48 [0 ffffffff 2 800] ------- [2:255 -1:255 29 0] [0x2 2 1 [4 0] [1 4]] (REQUEST)
r 0.004518642 _1_ RTR  --- 0 AODV 48 [0 ffffffff 2 800] ------- [2:255 -1:255 29 0] [0x2 2 1 [4 0] [1 4]] (REQUEST)
r 0.004518851 _5_ RTR  --- 0 AODV 48 [0 ffffffff 2 800] ------- [2:255 -1:255 29 0] [0x2 2 1 [4 0] [1 4]] (REQUEST)
r 0.004519368 _0_ RTR  --- 0 AODV 48 [0 ffffffff 2 800] ------- [2:255 -1:255 29 0] [0x2 2 1 [4 0] [1 4]] (REQUEST)
s 0.004723851 _5_ MAC  --- 0 AODV 106 [0 ffffffff 5 800] ------- [5:255 -1:255 29 0] [0x2 2 1 [4 0] [1 4]] (REQUEST)
r 0.005572352 _4_ MAC  --- 0 AODV 48 [0 ffffffff 5 800] ------- [5:255 -1:255 29 0] [0x2 2 1 [4 0] [1 4]] (REQUEST)
r 0.005572685 _3_ MAC  --- 0 AODV 48 [0 ffffffff 5 800] ------- [5:255 -1:255 29 0] [0x2 2 1 [4 0] [1 4]] (REQUEST)
r 0.005573074 _2_ MAC  --- 0 AODV 48 [0 ffffffff 5 800] ------- [5:255 -1:255 29 0] [0x2 2 1 [4 0] [1 4]] (REQUEST)
r 0.005573760 _1_ MAC  --- 0 AODV 48 [0 ffffffff 5 800] ------- [5:255 -1:255 29 0] [0x2 2 1 [4 0] [1 4]] (REQUEST)
r 0.005574480 _0_ MAC  --- 0 AODV 48 [0 ffffffff 5 800] ------- [5:255 -1:255 29 0] [0x2 2 1 [4 0] [1 4]] (REQUEST)
r 0.005597352 _4_ RTR  --- 0 AODV 48 [0 ffffffff 5 800] ------- [5:255 -1:255 29 0] [0x2 2 1 [4 0] [1 4]] (REQUEST)
r 0.005597685 _3_ RTR  --- 0 AODV 48 [0 ffffffff 5 800] ------- [5:255 -1:255 29 0] [0x2 2 1 [4 0] [1 4]] (REQUEST)
r 0.005598074 _2_ RTR  --- 0 AODV 48 [0 ffffffff 5 800] ------- [5:255 -1:255 29 0] [0x2 2 1 [4 0] [1 4]] (REQUEST)
r 0.005598760 _1_ RTR  --- 0 AODV 48 [0 ffffffff 5 800] ------- [5:255 -1:255 29 0] [0x2 2 1 [4 0] [1 4]] (REQUEST)
r 0.005599480 _0_ RTR  --- 0 AODV 48 [0 ffffffff 5 800] ------- [5:255 -1:255 29 0] [0x2 2 1 [4 0] [1 4]] (REQUEST)
s 0.005703760 _1_ MAC  --- 0 RTS 44 [52e 4 1 0] 
r 0.006057332 _4_ MAC  --- 0 RTS 44 [52e 4 1 0] 
s 0.006067332 _4_ MAC  --- 0 CTS 38 [3f4 1 0 0] 
r 0.006372905 _1_ MAC  --- 0 CTS 38 [3f4 1 0 0] 
s 0.006382905 _1_ MAC  --- 0 ARP 86 [13a 4 1 806] ------- [REPLY 1/1 4/4]
r 0.007072477 _4_ MAC  --- 0 ARP 28 [13a 4 1 806] ------- [REPLY 1/1 4/4]
s 0.007082477 _4_ MAC  --- 0 ACK 38 [0 1 0 0] 
r 0.007388049 _1_ MAC  --- 0 ACK 38 [0 1 0 0] 
s 0.007476477 _4_ MAC  --- 0 RTS 44 [5ae 1 4 0] 
r 0.007830049 _1_ MAC  --- 0 RTS 44 [5ae 1 4 0] 
s 0.007840049 _1_ MAC  --- 0 CTS 38 [474 4 0 0] 
s 0.008000000 _1_ AGT  --- 1 cbr 1000 [0 0 0 0] ------- [1:0 4:0 32 0] [1] 0 0
r 0.008000000 _1_ RTR  --- 1 cbr 1000 [0 0 0 0] ------- [1:0 4:0 32 0] [1] 0 0
r 0.008145622 _4_ MAC  --- 0 CTS 38 [474 4 0 0] 
s 0.008155622 _4_ MAC  --- 0 AODV 102 [13a 1 4 800] ------- [4:255 1:255 30 1] [0x4 1 [4 4] 10.000000] (REPLY)
r 0.008973194 _1_ MAC  --- 0 AODV 44 [13a 1 4 800] ------- [4:255 1:255 30 1] [0x4 1 [4 4] 10.000000] (REPLY)
s 0.008983194 _1_ MAC  --- 0 ACK 38 [0 4 0 0] 
r 0.008998194 _1_ RTR  --- 0 AODV 44 [13a 1 4 800] ------- [4:255 1:255 30 1] [0x4 1 [4 4] 10.000000] (REPLY)
s 0.008998194 _1_ RTR  --- 0 cbr 1020 [0 0 0 0] ------- [1:0 4:0 30 4] [0] 0 0
r 0.009288766 _4_ MAC  --- 0 ACK 38 [0 4 0 0] 
s 0.009557194 _1_ MAC  --- 0 RTS 44 [242e 4 1 0] 
r 0.009910766 _4_ MAC  --- 0 RTS 44 [242e 4 1 0] 
s 0.009920766 _4_ MAC  --- 0 CTS 38 [22f4 1 0 0] 
r 0.010226339 _1_ MAC  --- 0 CTS 38 [22f4 1 0 0] 
s 0.010236339 _1_ MAC  --- 0 cbr 1078 [13a 4 1 800] ------- [1:0 4:0 30 4] [0] 0 0
s 0.011168279 _3_ RTR  --- 0 AODV 48 [0 ffffffff 1 800] ------- [3:255 -1:255 29 0] [0x2 2 1 [4 0] [1 4]] (REQUEST)
s 0.016000000 _1_ AGT  --- 2 cbr 1000 [0 0 0 0] ------- [1:0 4:0 32 0] [2] 0 0
r 0.016000000 _1_ RTR  --- 2 cbr 1000 [0 0 0 0] ------- [1:0 4:0 32 0] [2] 0 0
s 0.016000000 _1_ RTR  --- 2 cbr 1020 [0 0 0 0] ------- [1:0 4:0 30 4] [2] 0 0
r 0.018861911 _4_ MAC  --- 0 cbr 1020 [13a 4 1 800] ------- [1:0 4:0 30 4] [0] 1 0
s 0.018871911 _4_ MAC  --- 0 ACK 38 [0 1 0 0] 
r 0.018886911 _4_ AGT  --- 0 cbr 1020 [13a 4 1 800] ------- [1:0 4:0 30 4] [0] 1 0
s 0.018998194 _1_ RTR  --- 1 cbr 1020 [0 0 0 0] ------- [1:0 4:0 30 4] [1] 0 0
r 0.019177483 _1_ MAC  --- 0 ACK 38 [0 1 0 0] 
s 0.019306244 _3_ MAC  --- 0 AODV 106 [0 ffffffff 3 800] ------- [3:255 -1:255 29 0] [0x2 2 1 [4 0] [1 4]] (REQUEST)
r 0.020154578 _4_ MAC  --- 0 AODV 48 [0 ffffffff 3 800] ------- [3:255 -1:255 29 0] [0x2 2 1 [4 0] [1 4]] (REQUEST)
r 0.020154716 _2_ MAC  --- 0 AODV 48 [0 ffffffff 3 800] ------- [3:255 -1:255 29 0] [0x2 2 1 [4 0] [1 4]] (REQUEST)
r 0.020155078 _5_ MAC  --- 0 AODV 48 [0 ffffffff 3 800] ------- [3:255 -1:255 29 0] [0x2 2 1 [4 0] [1 4]] (REQUEST)
r 0.020155668 _1_ MAC  --- 0 AODV 48 [0 ffffffff 3 800] ------- [3:255 -1:255 29 0] [0x2 2 1 [4 0] [1 4]] (REQUEST)
r 0.020156411 _0_ MAC  --- 0 AODV 48 [0 ffffffff 3 800] ------- [3:255 -1:255 29 0] [0x2 2 1 [4 0] [1 4]] (REQUEST)
r 0.020179578 _4_ RTR  --- 0 AODV 48 [0 ffffffff 3 800] ------- [3:255 -1:255 29 0] [0x2 2 1 [4 0] [1 4]] (REQUEST)
r 0.020179716 _2_ RTR  --- 0 AODV 48 [0 ffffffff 3 800] ------- [3:255 -1:255 29 0] [0x2 2 1 [4 0] [1 4]] (REQUEST)
r 0.020180078 _5_ RTR  --- 0 AODV 48 [0 ffffffff 3 800] ------- [3:255 -1:255 29 0] [0x2 2 1 [4 0] [1 4]] (REQUEST)
r 0.020180668 _1_ RTR  --- 0 AODV 48 [0 ffffffff 3 800] ------- [3:255 -1:255 29 0] [0x2 2 1 [4 0] [1 4]] (REQUEST)
r 0.020181411 _0_ RTR  --- 0 AODV 48 [0 ffffffff 3 800] ------- [3:255 -1:255 29 0] [0x2 2 1 [4 0] [1 4]] (REQUEST)
s 0.020565668 _1_ MAC  --- 0 RTS 44 [242e 4 1 0] 
r 0.020919241 _4_ MAC  --- 0 RTS 44 [242e 4 1 0] 
s 0.020929241 _4_ MAC  --- 0 CTS 38 [22f4 1 0 0] 
r 0.021234813 _1_ MAC  --- 0 CTS 38 [22f4 1 0 0] 
s 0.021244813 _1_ MAC  --- 2 cbr 1078 [13a 4 1 800] ------- [1:0 4:0 30 4] [2] 0 0
s 0.024000000 _1_ AGT  --- 3 cbr 1000 [0 0 0 0] ------- [1:0 4:0 32 0] [3] 0 0
r 0.024000000 _1_ RTR  --- 3 cbr 1000 [0 0 0 0] ------- [1:0 4:0 32 0] [3] 0 0
s 0.024000000 _1_ RTR  --- 3 cbr 1020 [0 0 0 0] ------- [1:0 4:0 30 4] [3] 0 0
r 0.029870385 _4_ MAC  --- 2 cbr 1020 [13a 4 1 800] ------- [1:0 4:0 30 4] [2] 1 0
s 0.029880385 _4_ MAC  --- 0 ACK 38 [0 1 0 0] 
r 0.029895385 _4_ AGT  --- 2 cbr 1020 [13a 4 1 800] ------- [1:0 4:0 30 4] [2] 1 0
r 0.030185958 _1_ MAC  --- 0 ACK 38 [0 1 0 0] 
s 0.030715958 _1_ MAC  --- 0 RTS 44 [242e 4 1 0] 
r 0.031069530 _4_ MAC  --- 0 RTS 44 [242e 4 1 0] 
s 0.031079530 _4_ MAC  --- 0 CTS 38 [22f4 1 0 0] 
r 0.031385102 _1_ MAC  --- 0 CTS 38 [22f4 1 0 0] 
s 0.031395102 _1_ MAC  --- 1 cbr 1078 [13a 4 1 800] ------- [1:0 4:0 30 4] [1] 0 0
s 0.032000000 _1_ AGT  --- 4 cbr 1000 [0 0 0 0] ------- [1:0 4:0 32 0] [4] 0 0
r 0.032000000 _1_ RTR  --- 4 cbr 1000 [0 0 0 0] ------- [1:0 4:0 32 0] [4] 0 0
s 0.032000000 _1_ RTR  --- 4 cbr 1020 [0 0 0 0] ------- [1:0 4:0 30 4] [4] 0 0
s 0.040000000 _1_ AGT  --- 5 cbr 1000 [0 0 0 0] ------- [1:0 4:0 32 0] [5] 0 0
r 0.040000000 _1_ RTR  --- 5 cbr 1000 [0 0 0 0] ------- [1:0 4:0 32 0] [5] 0 0
s 0.040000000 _1_ RTR  --- 5 cbr 1020 [0 0 0 0] ------- [1:0 4:0 30 4] [5] 0 0
r 0.040020675 _4_ MAC  --- 1 cbr 1020 [13a 4 1 800] ------- [1:0 4:0 30 4] [1] 1 0
s 0.040030675 _4_ MAC  --- 0 ACK 38 [0 1 0 0] 
r 0.040045675 _4_ AGT  --- 1 cbr 1020 [13a 4 1 800] ------- [1:0 4:0 30 4] [1] 1 0
r 0.040336247 _1_ MAC  --- 0 ACK 38 [0 1 0 0] 
s 0.040726247 _1_ MAC  --- 0 RTS 44 [242e 4 1 0] 
r 0.041079819 _4_ MAC  --- 0 RTS 44 [242e 4 1 0] 
s 0.041089819 _4_ MAC  --- 0 CTS 38 [22f4 1 0 0] 
r 0.041395392 _1_ MAC  --- 0 CTS 38 [22f4 1 0 0] 
s 0.041405392 _1_ MAC  --- 3 cbr 1078 [13a 4 1 800] ------- [1:0 4:0 30 4] [3] 0 0
s 0.048000000 _1_ AGT  --- 6 cbr 1000 [0 0 0 0] ------- [1:0 4:0 32 0] [6] 0 0
r 0.048000000 _1_ RTR  --- 6 cbr 1000 [0 0 0 0] ------- [1:0 4:0 32 0] [6] 0 0
s 0.048000000 _1_ RTR  --- 6 cbr 1020 [0 0 0 0] ------- [1:0 4:0 30 4] [6] 0 0
r 0.050030964 _4_ MAC  --- 3 cbr 1020 [13a 4 1 800] ------- [1:0 4:0 30 4] [3] 1 0
s 0.050040964 _4_ MAC  --- 0 ACK 38 [0 1 0 0] 
r 0.050055964 _4_ AGT  --- 3 cbr 1020 [13a 4 1 800] ------- [1:0 4:0 30 4] [3] 1 0
r 0.050346536 _1_ MAC  --- 0 ACK 38 [0 1 0 0] 
s 0.050656536 _1_ MAC  --- 0 RTS 44 [242e 4 1 0] 
r 0.051010109 _4_ MAC  --- 0 RTS 44 [242e 4 1 0] 
s 0.051020109 _4_ MAC  --- 0 CTS 38 [22f4 1 0 0] 
r 0.051325681 _1_ MAC  --- 0 CTS 38 [22f4 1 0 0] 
s 0.051335681 _1_ MAC  --- 4 cbr 1078 [13a 4 1 800] ------- [1:0 4:0 30 4] [4] 0 0
s 0.056000000 _1_ AGT  --- 7 cbr 1000 [0 0 0 0] ------- [1:0 4:0 32 0] [7] 0 0
r 0.056000000 _1_ RTR  --- 7 cbr 1000 [0 0 0 0] ------- [1:0 4:0 32 0] [7] 0 0
s 0.056000000 _1_ RTR  --- 7 cbr 1020 [0 0 0 0] ------- [1:0 4:0 30 4] [7] 0 0
r 0.059961253 _4_ MAC  --- 4 cbr 1020 [13a 4 1 800] ------- [1:0 4:0 30 4] [4] 1 0
s 0.059971253 _4_ MAC  --- 0 ACK 38 [0 1 0 0] 
r 0.059986253 _4_ AGT  --- 4 cbr 1020 [13a 4 1 800] ------- [1:0 4:0 30 4] [4] 1 0
r 0.060276826 _1_ MAC  --- 0 ACK 38 [0 1 0 0] 
s 0.060646826 _1_ MAC  --- 0 RTS 44 [242e 4 1 0] 
r 0.061000398 _4_ MAC  --- 0 RTS 44 [242e 4 1 0] 
s 0.061010398 _4_ MAC  --- 0 CTS 38 [22f4 1 0 0] 
r 0.061315970 _1_ MAC  --- 0 CTS 38 [22f4 1 0 0] 
s 0.061325970 _1_ MAC  --- 5 cbr 1078 [13a 4 1 800] ------- [1:0 4:0 30 4] [5] 0 0
s 0.064000000 _1_ AGT  --- 8 cbr 1000 [0 0 0 0] ------- [1:0 4:0 32 0] [8] 0 0
r 0.064000000 _1_ RTR  --- 8 cbr 1000 [0 0 0 0] ------- [1:0 4:0 32 0] [8] 0 0
s 0.064000000 _1_ RTR  --- 8 cbr 1020 [0 0 0 0] ------- [1:0 4:0 30 4] [8] 0 0
r 0.069951543 _4_ MAC  --- 5 cbr 1020 [13a 4 1 800] ------- [1:0 4:0 30 4] [5] 1 0
s 0.069961543 _4_ MAC  --- 0 ACK 38 [0 1 0 0] 
r 0.069976543 _4_ AGT  --- 5 cbr 1020 [13a 4 1 800] ------- [1:0 4:0 30 4] [5] 1 0
r 0.070267115 _1_ MAC  --- 0 ACK 38 [0 1 0 0] 
s 0.070817115 _1_ MAC  --- 0 RTS 44 [242e 4 1 0] 
r 0.071170687 _4_ MAC  --- 0 RTS 44 [242e 4 1 0] 
s 0.071180687 _4_ MAC  --- 0 CTS 38 [22f4 1 0 0] 
r 0.071486260 _1_ MAC  --- 0 CTS 38 [22f4 1 0 0] 
s 0.071496260 _1_ MAC  --- 6 cbr 1078 [13a 4 1 800] ------- [1:0 4:0 30 4] [6] 0 0
s 0.072000000 _1_ AGT  --- 9 cbr 1000 [0 0 0 0] ------- [1:0 4:0 32 0] [9] 0 0
r 0.072000000 _1_ RTR  --- 9 cbr 1000 [0 0 0 0] ------- [1:0 4:0 32 0] [9] 0 0
s 0.072000000 _1_ RTR  --- 9 cbr 1020 [0 0 0 0] ------- [1:0 4:0 30 4] [9] 0 0
s 0.080000000 _1_ AGT  --- 10 cbr 1000 [0 0 0 0] ------- [1:0 4:0 32 0] [10] 0 0
r 0.080000000 _1_ RTR  --- 10 cbr 1000 [0 0 0 0] ------- [1:0 4:0 32 0] [10] 0 0
s 0.080000000 _1_ RTR  --- 10 cbr 1020 [0 0 0 0] ------- [1:0 4:0 30 4] [10] 0 0
r 0.080121832 _4_ MAC  --- 6 cbr 1020 [13a 4 1 800] ------- [1:0 4:0 30 4] [6] 1 0
s 0.080131832 _4_ MAC  --- 0 ACK 38 [0 1 0 0] 
r 0.080146832 _4_ AGT  --- 6 cbr 1020 [13a 4 1 800] ------- [1:0 4:0 30 4] [6] 1 0
r 0.080437404 _1_ MAC  --- 0 ACK 38 [0 1 0 0] 
s 0.080527404 _1_ MAC  --- 0 RTS 44 [242e 4 1 0] 
r 0.080880977 _4_ MAC  --- 0 RTS 44 [242e 4 1 0] 
s 0.080890977 _4_ MAC  --- 0 CTS 38 [22f4 1 0 0] 
r 0.081196549 _1_ MAC  --- 0 CTS 38 [22f4 1 0 0] 
s 0.081206549 _1_ MAC  --- 7 cbr 1078 [13a 4 1 800] ------- [1:0 4:0 30 4] [7] 0 0
s 0.088000000 _1_ AGT  --- 11 cbr 1000 [0 0 0 0] ------- [1:0 4:0 32 0] [11] 0 0
r 0.088000000 _1_ RTR  --- 11 cbr 1000 [0 0 0 0] ------- [1:0 4:0 32 0] [11] 0 0
s 0.088000000 _1_ RTR  --- 11 cbr 1020 [0 0 0 0] ------- [1:0 4:0 30 4] [11] 0 0
r 0.089832121 _4_ MAC  --- 7 cbr 1020 [13a 4 1 800] ------- [1:0 4:0 30 4] [7] 1 0
s 0.089842121 _4_ MAC  --- 0 ACK 38 [0 1 0 0] 
r 0.089857121 _4_ AGT  --- 7 cbr 1020 [13a 4 1 800] ------- [1:0 4:0 30 4] [7] 1 0
r 0.090147694 _1_ MAC  --- 0 ACK 38 [0 1 0 0] 
s 0.090537694 _1_ MAC  --- 0 RTS 44 [242e 4 1 0] 
r 0.090891266 _4_ MAC  --- 0 RTS 44 [242e 4 1 0] 
s 0.090901266 _4_ MAC  --- 0 CTS 38 [22f4 1 0 0] 
r 0.091206838 _1_ MAC  --- 0 CTS 38 [22f4 1 0 0] 
s 0.091216838 _1_ MAC  --- 8 cbr 1078 [13a 4 1 800] ------- [1:0 4:0 30 4] [8] 0 0
s 0.096000000 _1_ AGT  --- 12 cbr 1000 [0 0 0 0] ------- [1:0 4:0 32 0] [12] 0 0
r 0.096000000 _1_ RTR  --- 12 cbr 1000 [0 0 0 0] ------- [1:0 4:0 32 0] [12] 0 0
s 0.096000000 _1_ RTR  --- 12 cbr 1020 [0 0 0 0] ------- [1:0 4:0 30 4] [12] 0 0
r 0.099842411 _4_ MAC  --- 8 cbr 1020 [13a 4 1 800] ------- [1:0 4:0 30 4] [8] 1 0
s 0.099852411 _4_ MAC  --- 0 ACK 38 [0 1 0 0] 
r 0.099867411 _4_ AGT  --- 8 cbr 1020 [13a 4 1 800] ------- [1:0 4:0 30 4] [8] 1 0
s 0.100000000 _2_ AGT  --- 13 cbr 1000 [0 0 0 0] ------- [2:0 0:0 32 0] [0] 0 0
r 0.100000000 _2_ RTR  --- 13 cbr 1000 [0 0 0 0] ------- [2:0 0:0 32 0] [0] 0 0
s 0.100000000 _2_ RTR  --- 0 AODV 48 [0 0 0 0] ------- [2:255 -1:255 30 0] [0x2 1 1 [0 0] [2 4]] (REQUEST)
r 0.100157983 _1_ MAC  --- 0 ACK 38 [0 1 0 0] 
s 0.100307983 _1_ MAC  --- 0 RTS 44 [242e 4 1 0] 
r 0.100661555 _4_ MAC  --- 0 RTS 44 [242e 4 1 0] 
s 0.100671555 _4_ MAC  --- 0 CTS 38 [22f4 1 0 0] 
r 0.100977128 _1_ MAC  --- 0 CTS 38 [22f4 1 0 0] 
s 0.100987128 _1_ MAC  --- 9 cbr 1078 [13a 4 1 800] ------- [1:0 4:0 30 4] [9] 0 0
s 0.104000000 _1_ AGT  --- 14 cbr 1000 [0 0 0 0] ------- [1:0 4:0 32 0] [13] 0 0
r 0.104000000 _1_ RTR  --- 14 cbr 1000 [0 0 0 0] ------- [1:0 4:0 32 0] [13] 0 0
s 0.104000000 _1_ RTR  --- 14 cbr 1020 [0 0 0 0] ------- [1:0 4:0 30 4] [13] 0 0
s 0.108000000 _2_ AGT  --- 15 cbr 1000 [0 0 0 0] ------- [2:0 0:0 32 0] [1] 0 0
r 0.108000000 _2_ RTR  --- 15 cbr 1000 [0 0 0 0] ------- [2:0 0:0 32 0] [1] 0 0
r 0.109612700 _4_ MAC  --- 9 cbr 1020 [13a 4 1 800] ------- [1:0 4:0 30 4] [9] 1 0
s 0.109622700 _4_ MAC  --- 0 ACK 38 [0 1 0 0] 
r 0.109637700 _4_ AGT  --- 9 cbr 1020 [13a 4 1 800] ------- [1:0 4:0 30 4] [9] 1 0
r 0.109928272 _1_ MAC  --- 0 ACK 38 [0 1 0 0] 
s 0.109978272 _1_ MAC  --- 0 RTS 44 [242e 4 1 0] 
r 0.110331845 _4_ MAC  --- 0 RTS 44 [242e 4 1 0] 
s 0.110341845 _4_ MAC  --- 0 CTS 38 [22f4 1 0 0] 
r 0.110647417 _1_ MAC  --- 0 CTS 38 [22f4 1 0 0] 
s 0.110657417 _1_ MAC  --- 10 cbr 1078 [13a 4 1 800] ------- [1:0 4:0 30 4] [10] 0 0
s 0.112000000 _1_ AGT  --- 16 cbr 1000 [0 0 0 0] ------- [1:0 4:0 32 0] [14] 0 0
r 0.112000000 _1_ RTR  --- 16 cbr 1000 [0 0 0 0] ------- [1:0 4:0 32 0] [14] 0 0
s 0.112000000 _1_ RTR  --- 16 cbr 1020 [0 0 0 0] ------- [1:0 4:0 30 4] [14] 0 0
s 0.116000000 _2_ AGT  --- 17 cbr 1000 [0 0 0 0] ------- [2:0 0:0 32 0] [2] 0 0
r 0.116000000 _2_ RTR  --- 17 cbr 1000 [0 0 0 0] ------- [2:0 0:0 32 0] [2] 0 0
r 0.119282989 _4_ MAC  --- 10 cbr 1020 [13a 4 1 800] ------- [1:0 4:0 30 4] [10] 1 0
s 0.119292989 _4_ MAC  --- 0 ACK 38 [0 1 0 0] 
r 0.119307989 _4_ AGT  --- 10 cbr 1020 [13a 4 1 800] ------- [1:0 4:0 30 4] [10] 1 0
r 0.119598562 _1_ MAC  --- 0 ACK 38 [0 1 0 0] 
s 0.120000000 _1_ AGT  --- 18 cbr 1000 [0 0 0 0] ------- [1:0 4:0 32 0] [15] 0 0
r 0.120000000 _1_ RTR  --- 18 cbr 1000 [0 0 0 0] ------- [1:0 4:0 32 0] [15] 0 0
s 0.120000000 _1_ RTR  --- 18 cbr 1020 [0 0 0 0] ------- [1:0 4:0 30 4] [15] 0 0
s 0.120048562 _1_ MAC  --- 0 RTS 44 [242e 4 1 0] 
r 0.120402134 _4_ MAC  --- 0 RTS 44 [242e 4 1 0] 
s 0.120412134 _4_ MAC  --- 0 CTS 38 [22f4 1 0 0] 
r 0.120717706 _1_ MAC  --- 0 CTS 38 [22f4 1 0 0] 
s 0.120727706 _1_ MAC  --- 11 cbr 1078 [13a 4 1 800] ------- [1:0 4:0 30 4] [11] 0 0
s 0.124000000 _2_ AGT  --- 19 cbr 1000 [0 0 0 0] ------- [2:0 0:0 32 0] [3] 0 0
r 0.124000000 _2_ RTR  --- 19 cbr 1000 [0 0 0 0] ------- [2:0 0:0 32 0] [3] 0 0
s 0.128000000 _1_ AGT  --- 20 cbr 1000 [0 0 0 0] ------- [1:0 4:0 32 0] [16] 0 0
r 0.128000000 _1_ RTR  --- 20 cbr 1000 [0 0 0 0] ------- [1:0 4:0 32 0] [16] 0 0
s 0.128000000 _1_ RTR  --- 20 cbr 1020 [0 0 0 0] ------- [1:0 4:0 30 4] [16] 0 0
r 0.129353279 _4_ MAC  --- 11 cbr 1020 [13a 4 1 800] ------- [1:0 4:0 30 4] [11] 1 0
s 0.129363279 _4_ MAC  --- 0 ACK 38 [0 1 0 0] 
r 0.129378279 _4_ AGT  --- 11 cbr 1020 [13a 4 1 800] ------- [1:0 4:0 30 4] [11] 1 0
r 0.129668851 _1_ MAC  --- 0 ACK 38 [0 1 0 0] 
s 0.129818024 _2_ MAC  --- 0 AODV 106 [0 ffffffff 2 800] ------- [2:255 -1:255 30 0] [0x2 1 1 [0 0] [2 4]] (REQUEST)
r 0.130666495 _3_ MAC  --- 0 AODV 48 [0 ffffffff 2 800] ------- [2:255 -1:255 30 0] [0x2 1 1 [0 0] [2 4]] (REQUEST)
r 0.130666769 _4_ MAC  --- 0 AODV 48 [0 ffffffff 2 800] ------- [2:255 -1:255 30 0] [0x2 1 1 [0 0] [2 4]] (REQUEST)
r 0.130667038 _1_ MAC  --- 0 AODV 48 [0 ffffffff 2 800] ------- [2:255 -1:255 30 0] [0x2 1 1 [0 0] [2 4]] (REQUEST)
r 0.130667247 _5_ MAC  --- 0 AODV 48 [0 ffffffff 2 800] ------- [2:255 -1:255 30 0] [0x2 1 1 [0 0] [2 4]] (REQUEST)
r 0.130667764 _0_ MAC  --- 0 AODV 48 [0 ffffffff 2 800] ------- [2:255 -1:255 30 0] [0x2 1 1 [0 0] [2 4]] (REQUEST)
r 0.130691495 _3_ RTR  --- 0 AODV 48 [0 ffffffff 2 800] ------- [2:255 -1:255 30 0] [0x2 1 1 [0 0] [2 4]] (REQUEST)
r 0.130691769 _4_ RTR  --- 0 AODV 48 [0 ffffffff 2 800] ------- [2:255 -1:255 30 0] [0x2 1 1 [0 0] [2 4]] (REQUEST)
r 0.130692038 _1_ RTR  --- 0 AODV 48 [0 ffffffff 2 800] ------- [2:255 -1:255 30 0] [0x2 1 1 [0 0] [2 4]] (REQUEST)
r 0.130692247 _5_ RTR  --- 0 AODV 48 [0 ffffffff 2 800] ------- [2:255 -1:255 30 0] [0x2 1 1 [0 0] [2 4]] (REQUEST)
r 0.130692764 _0_ RTR  --- 0 AODV 48 [0 ffffffff 2 800] ------- [2:255 -1:255 30 0] [0x2 1 1 [0 0] [2 4]] (REQUEST)
s 0.130692764 _0_ RTR  --- 0 AODV 44 [0 0 0 0] ------- [0:255 2:255 30 2] [0x4 1 [0 4] 10.000000] (REPLY)
s 0.130847764 _0_ MAC  --- 0 ARP 86 [0 ffffffff 0 806] ------- [REQUEST 0/0 0/2]
r 0.131536509 _1_ MAC  --- 0 ARP 28 [0 ffffffff 0 806] ------- [REQUEST 0/0 0/2]
r 0.131537504 _2_ MAC  --- 0 ARP 28 [0 ffffffff 0 806] ------- [REQUEST 0/0 0/2]
r 0.131537931 _3_ MAC  --- 0 ARP 28 [0 ffffffff 0 806] ------- [REQUEST 0/0 0/2]
r 0.131538079 _4_ MAC  --- 0 ARP 28 [0 ffffffff 0 806] ------- [REQUEST 0/0 0/2]
r 0.131538393 _5_ MAC  --- 0 ARP 28 [0 ffffffff 0 806] ------- [REQUEST 0/0 0/2]
s 0.131767504 _2_ MAC  --- 0 RTS 44 [52e 0 2 0] 
s 0.132000000 _2_ AGT  --- 21 cbr 1000 [0 0 0 0] ------- [2:0 0:0 32 0] [4] 0 0
r 0.132000000 _2_ RTR  --- 21 cbr 1000 [0 0 0 0] ------- [2:0 0:0 32 0] [4] 0 0
r 0.132121244 _0_ MAC  --- 0 RTS 44 [52e 0 2 0] 
s 0.132131244 _0_ MAC  --- 0 CTS 38 [3f4 2 0 0] 
r 0.132436984 _2_ MAC  --- 0 CTS 38 [3f4 2 0 0] 
s 0.132446984 _2_ MAC  --- 0 ARP 86 [13a 0 2 806] ------- [REPLY 2/2 0/0]
s 0.132486784 _3_ RTR  --- 0 AODV 48 [0 ffffffff 2 800] ------- [3:255 -1:255 29 0] [0x2 2 1 [0 0] [2 4]] (REQUEST)
r 0.133136724 _0_ MAC  --- 0 ARP 28 [13a 0 2 806] ------- [REPLY 2/2 0/0]
s 0.133146724 _0_ MAC  --- 0 ACK 38 [0 2 0 0] 
r 0.133452464 _2_ MAC  --- 0 ACK 38 [0 2 0 0] 
s 0.133519639 _1_ RTR  --- 0 AODV 48 [0 ffffffff 2 800] ------- [1:255 -1:255 29 0] [0x2 2 1 [0 0] [2 4]] (REQUEST)
s 0.133601470 _1_ MAC  --- 0 RTS 44 [242e 4 1 0] 
s 0.133936661 _4_ RTR  --- 0 AODV 48 [0 ffffffff 2 800] ------- [4:255 -1:255 29 0] [0x2 2 1 [0 0] [2 4]] (REQUEST)
r 0.133955042 _4_ MAC  --- 0 RTS 44 [242e 4 1 0] 
s 0.133965042 _4_ MAC  --- 0 CTS 38 [22f4 1 0 0] 
r 0.134270614 _1_ MAC  --- 0 CTS 38 [22f4 1 0 0] 
s 0.134280614 _1_ MAC  --- 12 cbr 1078 [13a 4 1 800] ------- [1:0 4:0 30 4] [12] 0 0
s 0.135007272 _5_ RTR  --- 0 AODV 48 [0 ffffffff 2 800] ------- [5:255 -1:255 29 0] [0x2 2 1 [0 0] [2 4]] (REQUEST)
s 0.136000000 _1_ AGT  --- 22 cbr 1000 [0 0 0 0] ------- [1:0 4:0 32 0] [17] 0 0
r 0.136000000 _1_ RTR  --- 22 cbr 1000 [0 0 0 0] ------- [1:0 4:0 32 0] [17] 0 0
s 0.136000000 _1_ RTR  --- 22 cbr 1020 [0 0 0 0] ------- [1:0 4:0 30 4] [17] 0 0
s 0.140000000 _2_ AGT  --- 23 cbr 1000 [0 0 0 0] ------- [2:0 0:0 32 0] [5] 0 0
r 0.140000000 _2_ RTR  --- 23 cbr 1000 [0 0 0 0] ------- [2:0 0:0 32 0] [5] 0 0
r 0.142906187 _4_ MAC  --- 12 cbr 1020 [13a 4 1 800] ------- [1:0 4:0 30 4] [12] 1 0
s 0.142916187 _4_ MAC  --- 0 ACK 38 [0 1 0 0] 
r 0.142931187 _4_ AGT  --- 12 cbr 1020 [13a 4 1 800] ------- [1:0 4:0 30 4] [12] 1 0
r 0.143221759 _1_ MAC  --- 0 ACK 38 [0 1 0 0] 
s 0.143290688 _5_ MAC  --- 0 AODV 106 [0 ffffffff 5 800] ------- [5:255 -1:255 29 0] [0x2 2 1 [0 0] [2 4]] (REQUEST)
s 0.144000000 _1_ AGT  --- 24 cbr 1000 [0 0 0 0] ------- [1:0 4:0 32 0] [18] 0 0
r 0.144000000 _1_ RTR  --- 24 cbr 1000 [0 0 0 0] ------- [1:0 4:0 32 0] [18] 0 0
s 0.144000000 _1_ RTR  --- 24 cbr 1020 [0 0 0 0] ------- [1:0 4:0 30 4] [18] 0 0
r 0.144139189 _4_ MAC  --- 0 AODV 48 [0 ffffffff 5 800] ------- [5:255 -1:255 29 0] [0x2 2 1 [0 0] [2 4]] (REQUEST)
r 0.144139522 _3_ MAC  --- 0 AODV 48 [0 ffffffff 5 800] ------- [5:255 -1:255 29 0] [0x2 2 1 [0 0] [2 4]] (REQUEST)
r 0.144139911 _2_ MAC  --- 0 AODV 48 [0 ffffffff 5 800] ------- [5:255 -1:255 29 0] [0x2 2 1 [0 0] [2 4]] (REQUEST)
r 0.144140597 _1_ MAC  --- 0 AODV 48 [0 ffffffff 5 800] ------- [5:255 -1:255 29 0] [0x2 2 1 [0 0] [2 4]] (REQUEST)
r 0.144141317 _0_ MAC  --- 0 AODV 48 [0 ffffffff 5 800] ------- [5:255 -1:255 29 0] [0x2 2 1 [0 0] [2 4]] (REQUEST)
r 0.144164189 _4_ RTR  --- 0 AODV 48 [0 ffffffff 5 800] ------- [5:255 -1:255 29 0] [0x2 2 1 [0 0] [2 4]] (REQUEST)
r 0.144164522 _3_ RTR  --- 0 AODV 48 [0 ffffffff 5 800] ------- [5:255 -1:255 29 0] [0x2 2 1 [0 0] [2 4]] (REQUEST)
r 0.144164911 _2_ RTR  --- 0 AODV 48 [0 ffffffff 5 800] ------- [5:255 -1:255 29 0] [0x2 2 1 [0 0] [2 4]] (REQUEST)
r 0.144165597 _1_ RTR  --- 0 AODV 48 [0 ffffffff 5 800] ------- [5:255 -1:255 29 0] [0x2 2 1 [0 0] [2 4]] (REQUEST)
r 0.144166317 _0_ RTR  --- 0 AODV 48 [0 ffffffff 5 800] ------- [5:255 -1:255 29 0] [0x2 2 1 [0 0] [2 4]] (REQUEST)
s 0.144271317 _0_ MAC  --- 0 RTS 44 [5ae 2 0 0] 
r 0.144625057 _2_ MAC  --- 0 RTS 44 [5ae 2 0 0] 
s 0.144635057 _2_ MAC  --- 0 CTS 38 [474 0 0 0] 
r 0.144940797 _0_ MAC  --- 0 CTS 38 [474 0 0 0] 
s 0.144950797 _0_ MAC  --- 0 AODV 102 [13a 2 0 800] ------- [0:255 2:255 30 2] [0x4 1 [0 4] 10.000000] (REPLY)
r 0.145768537 _2_ MAC  --- 0 AODV 44 [13a 2 0 800] ------- [0:255 2:255 30 2] [0x4 1 [0 4] 10.000000] (REPLY)
s 0.145778537 _2_ MAC  --- 0 ACK 38 [0 0 0 0] 
r 0.145793537 _2_ RTR  --- 0 AODV 44 [13a 2 0 800] ------- [0:255 2:255 30 2] [0x4 1 [0 4] 10.000000] (REPLY)
s 0.145793537 _2_ RTR  --- 13 cbr 1020 [0 0 0 0] ------- [2:0 0:0 30 0] [0] 0 0
r 0.146084277 _0_ MAC  --- 0 ACK 38 [0 0 0 0] 
s 0.146153008 _3_ MAC  --- 0 AODV 106 [0 ffffffff 3 800] ------- [3:255 -1:255 29 0] [0x2 2 1 [0 0] [2 4]] (REQUEST)
r 0.147001342 _4_ MAC  --- 0 AODV 48 [0 ffffffff 3 800] ------- [3:255 -1:255 29 0] [0x2 2 1 [0 0] [2 4]] (REQUEST)
r 0.147001480 _2_ MAC  --- 0 AODV 48 [0 ffffffff 3 800] ------- [3:255 -1:255 29 0] [0x2 2 1 [0 0] [2 4]] (REQUEST)
r 0.147001842 _5_ MAC  --- 0 AODV 48 [0 ffffffff 3 800] ------- [3:255 -1:255 29 0] [0x2 2 1 [0 0] [2 4]] (REQUEST)
r 0.147002432 _1_ MAC  --- 0 AODV 48 [0 ffffffff 3 800] ------- [3:255 -1:255 29 0] [0x2 2 1 [0 0] [2 4]] (REQUEST)
r 0.147003175 _0_ MAC  --- 0 AODV 48 [0 ffffffff 3 800] ------- [3:255 -1:255 29 0] [0x2 2 1 [0 0] [2 4]] (REQUEST)
r 0.147026342 _4_ RTR  --- 0 AODV 48 [0 ffffffff 3 800] ------- [3:255 -1:255 29 0] [0x2 2 1 [0 0] [2 4]] (REQUEST)
r 0.147026480 _2_ RTR  --- 0 AODV 48 [0 ffffffff 3 800] ------- [3:255 -1:255 29 0] [0x2 2 1 [0 0] [2 4]] (REQUEST)
r 0.147026842 _5_ RTR  --- 0 AODV 48 [0 ffffffff 3 800] ------- [3:255 -1:255 29 0] [0x2 2 1 [0 0] [2 4]] (REQUEST)
r 0.147027432 _1_ RTR  --- 0 AODV 48 [0 ffffffff 3 800] ------- [3:255 -1:255 29 0] [0x2 2 1 [0 0] [2 4]] (REQUEST)
r 0.147028175 _0_ RTR  --- 0 AODV 48 [0 ffffffff 3 800] ------- [3:255 -1:255 29 0] [0x2 2 1 [0 0] [2 4]] (REQUEST)
s 0.147092432 _1_ MAC  --- 0 AODV 106 [0 ffffffff 1 800] ------- [1:255 -1:255 29 0] [0x2 2 1 [0 0] [2 4]] (REQUEST)
r 0.147941178 _0_ MAC  --- 0 AODV 48 [0 ffffffff 1 800] ------- [1:255 -1:255 29 0] [0x2 2 1 [0 0] [2 4]] (REQUEST)
r 0.147941446 _2_ MAC  --- 0 AODV 48 [0 ffffffff 1 800] ------- [1:255 -1:255 29 0] [0x2 2 1 [0 0] [2 4]] (REQUEST)
r 0.147941856 _3_ MAC  --- 0 AODV 48 [0 ffffffff 1 800] ------- [1:255 -1:255 29 0] [0x2 2 1 [0 0] [2 4]] (REQUEST)
r 0.147942005 _4_ MAC  --- 0 AODV 48 [0 ffffffff 1 800] ------- [1:255 -1:255 29 0] [0x2 2 1 [0 0] [2 4]] (REQUEST)
r 0.147942342 _5_ MAC  --- 0 AODV 48 [0 ffffffff 1 800] ------- [1:255 -1:255 29 0] [0x2 2 1 [0 0] [2 4]] (REQUEST)
r 0.147966178 _0_ RTR  --- 0 AODV 48 [0 ffffffff 1 800] ------- [1:255 -1:255 29 0] [0x2 2 1 [0 0] [2 4]] (REQUEST)
r 0.147966446 _2_ RTR  --- 0 AODV 48 [0 ffffffff 1 800] ------- [1:255 -1:255 29 0] [0x2 2 1 [0 0] [2 4]] (REQUEST)
r 0.147966856 _3_ RTR  --- 0 AODV 48 [0 ffffffff 1 800] ------- [1:255 -1:255 29 0] [0x2 2 1 [0 0] [2 4]] (REQUEST)
r 0.147967005 _4_ RTR  --- 0 AODV 48 [0 ffffffff 1 800] ------- [1:255 -1:255 29 0] [0x2 2 1 [0 0] [2 4]] (REQUEST)
r 0.147967342 _5_ RTR  --- 0 AODV 48 [0 ffffffff 1 800] ------- [1:255 -1:255 29 0] [0x2 2 1 [0 0] [2 4]] (REQUEST)
s 0.148000000 _2_ AGT  --- 25 cbr 1000 [0 0 0 0] ------- [2:0 0:0 32 0] [6] 0 0
r 0.148000000 _2_ RTR  --- 25 cbr 1000 [0 0 0 0] ------- [2:0 0:0 32 0] [6] 0 0
s 0.148000000 _2_ RTR  --- 25 cbr 1020 [0 0 0 0] ------- [2:0 0:0 30 0] [6] 0 0
s 0.148130432 _1_ MAC  --- 0 RTS 44 [242e 4 1 0] 
r 0.148484005 _4_ MAC  --- 0 RTS 44 [242e 4 1 0] 
s 0.148494005 _4_ MAC  --- 0 CTS 38 [22f4 1 0 0] 
r 0.148799577 _1_ MAC  --- 0 CTS 38 [22f4 1 0 0] 
s 0.148809577 _1_ MAC  --- 14 cbr 1078 [13a 4 1 800] ------- [1:0 4:0 30 4] [13] 0 0
s 0.152000000 _1_ AGT  --- 26 cbr 1000 [0 0 0 0] ------- [1:0 4:0 32 0] [19] 0 0
r 0.152000000 _1_ RTR  --- 26 cbr 1000 [0 0 0 0] ------- [1:0 4:0 32 0] [19] 0 0
s 0.152000000 _1_ RTR  --- 26 cbr 1020 [0 0 0 0] ------- [1:0 4:0 30 4] [19] 0 0
s 0.155793537 _2_ RTR  --- 15 cbr 1020 [0 0 0 0] ------- [2:0 0:0 30 0] [1] 0 0
s 0.156000000 _2_ AGT  --- 27 cbr 1000 [0 0 0 0] ------- [2:0 0:0 32 0] [7] 0 0
r 0.156000000 _2_ RTR  --- 27 cbr 1000 [0 0 0 0] ------- [2:0 0:0 32 0] [7] 0 0
s 0.156000000 _2_ RTR  --- 27 cbr 1020 [0 0 0 0] ------- [2:0 0:0 30 0] [7] 0 0
r 0.157435149 _4_ MAC  --- 14 cbr 1020 [13a 4 1 800] ------- [1:0 4:0 30 4] [13] 1 0
s 0.157445149 _4_ MAC  --- 0 ACK 38 [0 1 0 0] 
r 0.157460149 _4_ AGT  --- 14 cbr 1020 [13a 4 1 800] ------- [1:0 4:0 30 4] [13] 1 0
r 0.157750722 _1_ MAC  --- 0 ACK 38 [0 1 0 0] 