s 0.000000000 _1_ AGT  --- 0 cbr 1000 [0 0 0 0] ------- [1:0 4:0 32 0] [0] 0 0
r 0.000000000 _1_ RTR  --- 0 cbr 1000 [0 0 0 0] ------- [1:0 4:0 32 0] [0] 0 0
s 0.000000000 _1_ RTR  --- 0 AODV 48 [0 0 0 0] ------- [1:255 -1:255 30 0] [0x2 1 1 [4 0] [1 4]] (REQUEST)
s 0.000095000 _1_ MAC  --- 0 AODV 106 [0 ffffffff 1 800] ------- [1:255 -1:255 30 0] [0x2 1 1 [4 0] [1 4]] (REQUEST)
r 0.000943745 _0_ MAC  --- 0 AODV 48 [0 ffffffff 1 800] ------- [1:255 -1:255 30 0] [0x2 1 1 [4 0] [1 4]] (REQUEST)
r 0.000944014 _2_ MAC  --- 0 AODV 48 [0 ffffffff 1 800] ------- [1:255 -1:255 30 0] [0x2 1 1 [4 0] [1 4]] (REQUEST)
r 0.000944424 _3_ MAC  --- 0 AODV 48 [0 ffffffff 1 800] ------- [1:255 -1:255 30 0] [0x2 1 1 [4 0] [1 4]] (REQUEST)
r 0.000944572 _4_ MAC  --- 0 AODV 48 [0 ffffffff 1 800] ------- [1:255 -1:255 30 0] [0x2 1 1 [4 0] [1 4]] (REQUEST)
r 0.000944909 _5_ MAC  --- 0 AODV 48 [0 ffffffff 1 800] ------- [1:255 -1:255 30 0] [0x2 1 1 [4 0] [1 4]] (REQUEST)
r 0.000968745 _0_ RTR  --- 0 AODV 48 [0 ffffffff 1 800] ------- [1:255 -1:255 30 0] [0x2 1 1 [4 0] [1 4]] (REQUEST)
r 0.000969014 _2_ RTR  --- 0 AODV 48 [0 ffffffff 1 800] ------- [1:255 -1:255 30 0] [0x2 1 1 [4 0] [1 4]] (REQUEST)
r 0.000969424 _3_ RTR  --- 0 AODV 48 [0 ffffffff 1 800] ------- [1:255 -1:255 30 0] [0x2 1 1 [4 0] [1 4]] (REQUEST)
r 0.000969572 _4_ RTR  --- 0 AODV 48 [0 ffffffff 1 800] ------- [1:255 -1:255 30 0] [0x2 1 1 [4 0] [1 4]] (REQUEST)
s 0.000969572 _4_ RTR  --- 0 AODV 44 [0 0 0 0] ------- [4:255 1:255 30 1] [0x4 1 [4 4] 10.000000] (REPLY)
r 0.000969909 _5_ RTR  --- 0 AODV 48 [0 ffffffff 1 800] ------- [1:255 -1:255 30 0] [0x2 1 1 [4 0] [1 4]] (REQUEST)
s 0.001280663 _5_ RTR  --- 0 AODV 48 [0 ffffffff 1 800] ------- [5:255 -1:255 29 0] [0x2 2 1 [4 0] [1 4]] (REQUEST)
s 0.001304572 _4_ MAC  --- 0 ARP 86 [0 ffffffff 4 806] ------- [REQUEST 4/4 0/1]
s 0.001548606 _3_ RTR  --- 0 AODV 48 [0 ffffffff 1 800] ------- [3:255 -1:255 29 0] [0x2 2 1 [4 0] [1 4]] (REQUEST)
r 0.001992906 _3_ MAC  --- 0 ARP 28 [0 ffffffff 4 806] ------- [REQUEST 4/4 0/1]
r 0.001993073 _5_ MAC  --- 0 ARP 28 [0 ffffffff 4 806] ------- [REQUEST 4/4 0/1]
r 0.001993318 _2_ MAC  --- 0 ARP 28 [0 ffffffff 4 806] ------- [REQUEST 4/4 0/1]
r 0.001994145 _1_ MAC  --- 0 ARP 28 [0 ffffffff 4 806] ------- [REQUEST 4/4 0/1]
r 0.001994888 _0_ MAC  --- 0 ARP 28 [0 ffffffff 4 806] ------- [REQUEST 4/4 0/1]
s 0.002124145 _1_ MAC  --- 0 RTS 44 [52e 4 1 0] 
r 0.002477717 _4_ MAC  --- 0 RTS 44 [52e 4 1 0] 
s 0.002487717 _4_ MAC  --- 0 CTS 38 [3f4 1 0 0] 
r 0.002793289 _1_ MAC  --- 0 CTS 38 [3f4 1 0 0] 
s 0.002803289 _1_ MAC  --- 0 ARP 86 [13a 4 1 806] ------- [REPLY 1/1 4/4]
r 0.003492862 _4_ MAC  --- 0 ARP 28 [13a 4 1 806] ------- [REPLY 1/1 4/4]
s 0.003502862 _4_ MAC  --- 0 ACK 38 [0 1 0 0] 
r 0.003808434 _1_ MAC  --- 0 ACK 38 [0 1 0 0] 
s 0.003996862 _4_ MAC  --- 0 RTS 44 [5ae 1 4 0] 
r 0.004350434 _1_ MAC  --- 0 RTS 44 [5ae 1 4 0] 
s 0.004360434 _1_ MAC  --- 0 CTS 38 [474 4 0 0] 
r 0.004666006 _4_ MAC  --- 0 CTS 38 [474 4 0 0] 
s 0.004676006 _4_ MAC  --- 0 AODV 102 [13a 1 4 800] ------- [4:255 1:255 30 1] [0x4 1 [4 4] 10.000000] (REPLY)
s 0.005172093 _2_ RTR  --- 0 AODV 48 [0 ffffffff 1 800] ------- [2:255 -1:255 29 0] [0x2 2 1 [4 0] [1 4]] (REQUEST)
r 0.005493579 _1_ MAC  --- 0 AODV 44 [13a 1 4 800] ------- [4:255 1:255 30 1] [0x4 1 [4 4] 10.000000] (REPLY)
s 0.005503579 _1_ MAC  --- 0 ACK 38 [0 4 0 0] 
r 0.005518579 _1_ RTR  --- 0 AODV 44 [13a 1 4 800] ------- [4:255 1:255 30 1] [0x4 1 [4 4] 10.000000] (REPLY)
s 0.005518579 _1_ RTR  --- 0 cbr 1020 [0 0 0 0] ------- [1:0 4:0 30 4] [0] 0 0
r 0.005809151 _4_ MAC  --- 0 ACK 38 [0 4 0 0] 
s 0.005858592 _2_ MAC  --- 0 AODV 106 [0 ffffffff 2 800] ------- [2:255 -1:255 29 0] [0x2 2 1 [4 0] [1 4]] (REQUEST)
r 0.006707064 _3_ MAC  --- 0 AODV 48 [0 ffffffff 2 800] ------- [2:255 -1:255 29 0] [0x2 2 1 [4 0] [1 4]] (REQUEST)
r 0.006707338 _4_ MAC  --- 0 AODV 48 [0 ffffffff 2 800] ------- [2:255 -1:255 29 0] [0x2 2 1 [4 0] [1 4]] (REQUEST)
r 0.006707606 _1_ MAC  --- 0 AODV 48 [0 ffffffff 2 800] ------- [2:255 -1:255 29 0] [0x2 2 1 [4 0] [1 4]] (REQUEST)
r 0.006707815 _5_ MAC  --- 0 AODV 48 [0 ffffffff 2 800] ------- [2:255 -1:255 29 0] [0x2 2 1 [4 0] [1 4]] (REQUEST)
r 0.006708332 _0_ MAC  --- 0 AODV 48 [0 ffffffff 2 800] ------- [2:255 -1:255 29 0] [0x2 2 1 [4 0] [1 4]] (REQUEST)
r 0.006732064 _3_ RTR  --- 0 AODV 48 [0 ffffffff 2 800] ------- [2:255 -1:255 29 0] [0x2 2 1 [4 0] [1 4]] (REQUEST)
r 0.006732338 _4_ RTR  --- 0 AODV 48 [0 ffffffff 2 800] ------- [2:255 -1:255 29 0] [0x2 2 1 [4 0] [1 4]] (REQUEST)
r 0.006732606 _1_ RTR  --- 0 AODV 48 [0 ffffffff 2 800] ------- [2:255 -1:255 29 0] [0x2 2 1 [4 0] [1 4]] (REQUEST)
r 0.006732815 _5_ RTR  --- 0 AODV 48 [0 ffffffff 2 800] ------- [2:255 -1:255 29 0] [0x2 2 1 [4 0] [1 4]] (REQUEST)
r 0.006733332 _0_ RTR  --- 0 AODV 48 [0 ffffffff 2 800] ------- [2:255 -1:255 29 0] [0x2 2 1 [4 0] [1 4]] (REQUEST)
s 0.006917064 _3_ MAC  --- 0 AODV 106 [0 ffffffff 3 800] ------- [3:255 -1:255 29 0] [0x2 2 1 [4 0] [1 4]] (REQUEST)
r 0.007765397 _4_ MAC  --- 0 AODV 48 [0 ffffffff 3 800] ------- [3:255 -1:255 29 0] [0x2 2 1 [4 0] [1 4]] (REQUEST)
r 0.007765535 _2_ MAC  --- 0 AODV 48 [0 ffffffff 3 800] ------- [3:255 -1:255 29 0] [0x2 2 1 [4 0] [1 4]] (REQUEST)
r 0.007765898 _5_ MAC  --- 0 AODV 48 [0 ffffffff 3 800] ------- [3:255 -1:255 29 0] [0x2 2 1 [4 0] [1 4]] (REQUEST)
r 0.007766488 _1_ MAC  --- 0 AODV 48 [0 ffffffff 3 800] ------- [3:255 -1:255 29 0] [0x2 2 1 [4 0] [1 4]] (REQUEST)
r 0.007767231 _0_ MAC  --- 0 AODV 48 [0 ffffffff 3 800] ------- [3:255 -1:255 29 0] [0x2 2 1 [4 0] [1 4]] (REQUEST)
r 0.007790397 _4_ RTR  --- 0 AODV 48 [0 ffffffff 3 800] ------- [3:255 -1:255 29 0] [0x2 2 1 [4 0] [1 4]] (REQUEST)
r 0.007790535 _2_ RTR  --- 0 AODV 48 [0 ffffffff 3 800] ------- [3:255 -1:255 29 0] [0x2 2 1 [4 0] [1 4]] (REQUEST)
r 0.007790898 _5_ RTR  --- 0 AODV 48 [0 ffffffff 3 800] ------- [3:255 -1:255 29 0] [0x2 2 1 [4 0] [1 4]] (REQUEST)
r 0.007791488 _1_ RTR  --- 0 AODV 48 [0 ffffffff 3 800] ------- [3:255 -1:255 29 0] [0x2 2 1 [4 0] [1 4]] (REQUEST)
r 0.007792231 _0_ RTR  --- 0 AODV 48 [0 ffffffff 3 800] ------- [3:255 -1:255 29 0] [0x2 2 1 [4 0] [1 4]] (REQUEST)
s 0.007855898 _5_ MAC  --- 0 AODV 106 [0 ffffffff 5 800] ------- [5:255 -1:255 29 0] [0x2 2 1 [4 0] [1 4]] (REQUEST)
r 0.008704399 _4_ MAC  --- 0 AODV 48 [0 ffffffff 5 800] ------- [5:255 -1:255 29 0] [0x2 2 1 [4 0] [1 4]] (REQUEST)
r 0.008704732 _3_ MAC  --- 0 AODV 48 [0 ffffffff 5 800] ------- [5:255 -1:255 29 0] [0x2 2 1 [4 0] [1 4]] (REQUEST)
r 0.008705121 _2_ MAC  --- 0 AODV 48 [0 ffffffff 5 800] ------- [5:255 -1:255 29 0] [0x2 2 1 [4 0] [1 4]] (REQUEST)
r 0.008705807 _1_ MAC  --- 0 AODV 48 [0 ffffffff 5 800] ------- [5:255 -1:255 29 0] [0x2 2 1 [4 0] [1 4]] (REQUEST)
r 0.008706527 _0_ MAC  --- 0 AODV 48 [0 ffffffff 5 800] ------- [5:255 -1:255 29 0] [0x2 2 1 [4 0] [1 4]] (REQUEST)
r 0.008729399 _4_ RTR  --- 0 AODV 48 [0 ffffffff 5 800] ------- [5:255 -1:255 29 0] [0x2 2 1 [4 0] [1 4]] (REQUEST)
r 0.008729732 _3_ RTR  --- 0 AODV 48 [0 ffffffff 5 800] ------- [5:255 -1:255 29 0] [0x2 2 1 [4 0] [1 4]] (REQUEST)
r 0.008730121 _2_ RTR  --- 0 AODV 48 [0 ffffffff 5 800] ------- [5:255 -1:255 29 0] [0x2 2 1 [4 0] [1 4]] (REQUEST)
r 0.008730807 _1_ RTR  --- 0 AODV 48 [0 ffffffff 5 800] ------- [5:255 -1:255 29 0] [0x2 2 1 [4 0] [1 4]] (REQUEST)
r 0.008731527 _0_ RTR  --- 0 AODV 48 [0 ffffffff 5 800] ------- [5:255 -1:255 29 0] [0x2 2 1 [4 0] [1 4]] (REQUEST)
s 0.008915807 _1_ MAC  --- 0 RTS 44 [242e 4 1 0] 
s 0.008977814 _0_ RTR  --- 0 AODV 48 [0 ffffffff 1 800] ------- [0:255 -1:255 29 0] [0x2 2 1 [4 0] [1 4]] (REQUEST)
r 0.009269380 _4_ MAC  --- 0 RTS 44 [242e 4 1 0] 
s 0.009279380 _4_ MAC  --- 0 CTS 38 [22f4 1 0 0] 
r 0.009584952 _1_ MAC  --- 0 CTS 38 [22f4 1 0 0] 
s 0.009594952 _1_ MAC  --- 0 cbr 1078 [13a 4 1 800] ------- [1:0 4:0 30 4] [0] 0 0
s 0.017857143 _1_ AGT  --- 1 cbr 1000 [0 0 0 0] ------- [1:0 4:0 32 0] [1] 0 0
r 0.017857143 _1_ RTR  --- 1 cbr 1000 [0 0 0 0] ------- [1:0 4:0 32 0] [1] 0 0
s 0.017857143 _1_ RTR  --- 1 cbr 1020 [0 0 0 0] ------- [1:0 4:0 30 4] [1] 0 0
r 0.018220524 _4_ MAC  --- 0 cbr 1020 [13a 4 1 800] ------- [1:0 4:0 30 4] [0] 1 0
s 0.018230524 _4_ MAC  --- 0 ACK 38 [0 1 0 0] 
r 0.018245524 _4_ AGT  --- 0 cbr 1020 [13a 4 1 800] ------- [1:0 4:0 30 4] [0] 1 0
r 0.018536096 _1_ MAC  --- 0 ACK 38 [0 1 0 0] 
s 0.018586840 _0_ MAC  --- 0 AODV 106 [0 ffffffff 0 800] ------- [0:255 -1:255 29 0] [0x2 2 1 [4 0] [1 4]] (REQUEST)
r 0.019435585 _1_ MAC  --- 0 AODV 48 [0 ffffffff 0 800] ------- [0:255 -1:255 29 0] [0x2 2 1 [4 0] [1 4]] (REQUEST)
r 0.019436580 _2_ MAC  --- 0 AODV 48 [0 ffffffff 0 800] ------- [0:255 -1:255 29 0] [0x2 2 1 [4 0] [1 4]] (REQUEST)
r 0.019437006 _3_ MAC  --- 0 AODV 48 [0 ffffffff 0 800] ------- [0:255 -1:255 29 0] [0x2 2 1 [4 0] [1 4]] (REQUEST)
r 0.019437155 _4_ MAC  --- 0 AODV 48 [0 ffffffff 0 800] ------- [0:255 -1:255 29 0] [0x2 2 1 [4 0] [1 4]] (REQUEST)
r 0.019437469 _5_ MAC  --- 0 AODV 48 [0 ffffffff 0 800] ------- [0:255 -1:255 29 0] [0x2 2 1 [4 0] [1 4]] (REQUEST)
r 0.019460585 _1_ RTR  --- 0 AODV 48 [0 ffffffff 0 800] ------- [0:255 -1:255 29 0] [0x2 2 1 [4 0] [1 4]] (REQUEST)
r 0.019461580 _2_ RTR  --- 0 AODV 48 [0 ffffffff 0 800] ------- [0:255 -1:255 29 0] [0x2 2 1 [4 0] [1 4]] (REQUEST)
r 0.019462006 _3_ RTR  --- 0 AODV 48 [0 ffffffff 0 800] ------- [0:255 -1:255 29 0] [0x2 2 1 [4 0] [1 4]] (REQUEST)
r 0.019462155 _4_ RTR  --- 0 AODV 48 [0 ffffffff 0 800] ------- [0:255 -1:255 29 0] [0x2 2 1 [4 0] [1 4]] (REQUEST)
r 0.019462469 _5_ RTR  --- 0 AODV 48 [0 ffffffff 0 800] ------- [0:255 -1:255 29 0] [0x2 2 1 [4 0] [1 4]] (REQUEST)
s 0.019825585 _1_ MAC  --- 0 RTS 44 [242e 4 1 0] 
r 0.020179157 _4_ MAC  --- 0 RTS 44 [242e 4 1 0] 
s 0.020189157 _4_ MAC  --- 0 CTS 38 [22f4 1 0 0] 
r 0.020494730 _1_ MAC  --- 0 CTS 38 [22f4 1 0 0] 
s 0.020504730 _1_ MAC  --- 1 cbr 1078 [13a 4 1 800] ------- [1:0 4:0 30 4] [1] 0 0
r 0.029130302 _4_ MAC  --- 1 cbr 1020 [13a 4 1 800] ------- [1:0 4:0 30 4] [1] 1 0
s 0.029140302 _4_ MAC  --- 0 ACK 38 [0 1 0 0] 
r 0.029155302 _4_ AGT  --- 1 cbr 1020 [13a 4 1 800] ------- [1:0 4:0 30 4] [1] 1 0
r 0.029445874 _1_ MAC  --- 0 ACK 38 [0 1 0 0] 
s 0.035714286 _1_ AGT  --- 2 cbr 1000 [0 0 0 0] ------- [1:0 4:0 32 0] [2] 0 0
r 0.035714286 _1_ RTR  --- 2 cbr 1000 [0 0 0 0] ------- [1:0 4:0 32 0] [2] 0 0
s 0.035714286 _1_ RTR  --- 2 cbr 1020 [0 0 0 0] ------- [1:0 4:0 30 4] [2] 0 0
s 0.036049286 _1_ MAC  --- 0 RTS 44 [242e 4 1 0] 
r 0.036402858 _4_ MAC  --- 0 RTS 44 [242e 4 1 0] 
s 0.036412858 _4_ MAC  --- 0 CTS 38 [22f4 1 0 0] 
r 0.036718430 _1_ MAC  --- 0 CTS 38 [22f4 1 0 0] 
s 0.036728430 _1_ MAC  --- 2 cbr 1078 [13a 4 1 800] ------- [1:0 4:0 30 4] [2] 0 0
r 0.045354003 _4_ MAC  --- 2 cbr 1020 [13a 4 1 800] ------- [1:0 4:0 30 4] [2] 1 0
s 0.045364003 _4_ MAC  --- 0 ACK 38 [0 1 0 0] 
r 0.045379003 _4_ AGT  --- 2 cbr 1020 [13a 4 1 800] ------- [1:0 4:0 30 4] [2] 1 0
r 0.045669575 _1_ MAC  --- 0 ACK 38 [0 1 0 0] 
s 0.053571429 _1_ AGT  --- 3 cbr 1000 [0 0 0 0] ------- [1:0 4:0 32 0] [3] 0 0
r 0.053571429 _1_ RTR  --- 3 cbr 1000 [0 0 0 0] ------- [1:0 4:0 32 0] [3] 0 0
s 0.053571429 _1_ RTR  --- 3 cbr 1020 [0 0 0 0] ------- [1:0 4:0 30 4] [3] 0 0
s 0.053666429 _1_ MAC  --- 0 RTS 44 [242e 4 1 0] 
r 0.054020001 _4_ MAC  --- 0 RTS 44 [242e 4 1 0] 
s 0.054030001 _4_ MAC  --- 0 CTS 38 [22f4 1 0 0] 
r 0.054335573 _1_ MAC  --- 0 CTS 38 [22f4 1 0 0] 
s 0.054345573 _1_ MAC  --- 3 cbr 1078 [13a 4 1 800] ------- [1:0 4:0 30 4] [3] 0 0
r 0.062971146 _4_ MAC  --- 3 cbr 1020 [13a 4 1 800] ------- [1:0 4:0 30 4] [3] 1 0
s 0.062981146 _4_ MAC  --- 0 ACK 38 [0 1 0 0] 
r 0.062996146 _4_ AGT  --- 3 cbr 1020 [13a 4 1 800] ------- [1:0 4:0 30 4] [3] 1 0
r 0.063286718 _1_ MAC  --- 0 ACK 38 [0 1 0 0] 
s 0.071428571 _1_ AGT  --- 4 cbr 1000 [0 0 0 0] ------- [1:0 4:0 32 0] [4] 0 0
r 0.071428571 _1_ RTR  --- 4 cbr 1000 [0 0 0 0] ------- [1:0 4:0 32 0] [4] 0 0
s 0.071428571 _1_ RTR  --- 4 cbr 1020 [0 0 0 0] ------- [1:0 4:0 30 4] [4] 0 0
s 0.072003571 _1_ MAC  --- 0 RTS 44 [242e 4 1 0] 
r 0.072357144 _4_ MAC  --- 0 RTS 44 [242e 4 1 0] 
s 0.072367144 _4_ MAC  --- 0 CTS 38 [22f4 1 0 0] 
r 0.072672716 _1_ MAC  --- 0 CTS 38 [22f4 1 0 0] 
s 0.072682716 _1_ MAC  --- 4 cbr 1078 [13a 4 1 800] ------- [1:0 4:0 30 4] [4] 0 0
r 0.081308288 _4_ MAC  --- 4 cbr 1020 [13a 4 1 800] ------- [1:0 4:0 30 4] [4] 1 0
s 0.081318288 _4_ MAC  --- 0 ACK 38 [0 1 0 0] 
r 0.081333288 _4_ AGT  --- 4 cbr 1020 [13a 4 1 800] ------- [1:0 4:0 30 4] [4] 1 0
r 0.081623861 _1_ MAC  --- 0 ACK 38 [0 1 0 0] 
s 0.089285714 _1_ AGT  --- 5 cbr 1000 [0 0 0 0] ------- [1:0 4:0 32 0] [5] 0 0
r 0.089285714 _1_ RTR  --- 5 cbr 1000 [0 0 0 0] ------- [1:0 4:0 32 0] [5] 0 0
s 0.089285714 _1_ RTR  --- 5 cbr 1020 [0 0 0 0] ------- [1:0 4:0 30 4] [5] 0 0
s 0.089520714 _1_ MAC  --- 0 RTS 44 [242e 4 1 0] 
r 0.089874287 _4_ MAC  --- 0 RTS 44 [242e 4 1 0] 
s 0.089884287 _4_ MAC  --- 0 CTS 38 [22f4 1 0 0] 
r 0.090189859 _1_ MAC  --- 0 CTS 38 [22f4 1 0 0] 
s 0.090199859 _1_ MAC  --- 5 cbr 1078 [13a 4 1 800] ------- [1:0 4:0 30 4] [5] 0 0
r 0.098825431 _4_ MAC  --- 5 cbr 1020 [13a 4 1 800] ------- [1:0 4:0 30 4] [5] 1 0
s 0.098835431 _4_ MAC  --- 0 ACK 38 [0 1 0 0] 
r 0.098850431 _4_ AGT  --- 5 cbr 1020 [13a 4 1 800] ------- [1:0 4:0 30 4] [5] 1 0
r 0.099141004 _1_ MAC  --- 0 ACK 38 [0 1 0 0] 
s 0.100000000 _2_ AGT  --- 6 cbr 1000 [0 0 0 0] ------- [2:0 0:0 32 0] [0] 0 0
r 0.100000000 _2_ RTR  --- 6 cbr 1000 [0 0 0 0] ------- [2:0 0:0 32 0] [0] 0 0
s 0.100000000 _2_ RTR  --- 0 AODV 48 [0 0 0 0] ------- [2:255 -1:255 30 0] [0x2 1 1 [0 0] [2 4]] (REQUEST)
s 0.100275000 _2_ MAC  --- 0 AODV 106 [0 ffffffff 2 800] ------- [2:255 -1:255 30 0] [0x2 1 1 [0 0] [2 4]] (REQUEST)
r 0.101123471 _3_ MAC  --- 0 AODV 48 [0 ffffffff 2 800] ------- [2:255 -1:255 30 0] [0x2 1 1 [0 0] [2 4]] (REQUEST)
r 0.101123745 _4_ MAC  --- 0 AODV 48 [0 ffffffff 2 800] ------- [2:255 -1:255 30 0] [0x2 1 1 [0 0] [2 4]] (REQUEST)
r 0.101124014 _1_ MAC  --- 0 AODV 48 [0 ffffffff 2 800] ------- [2:255 -1:255 30 0] [0x2 1 1 [0 0] [2 4]] (REQUEST)
r 0.101124223 _5_ MAC  --- 0 AODV 48 [0 ffffffff 2 800] ------- [2:255 -1:255 30 0] [0x2 1 1 [0 0] [2 4]] (REQUEST)
r 0.101124740 _0_ MAC  --- 0 AODV 48 [0 ffffffff 2 800] ------- [2:255 -1:255 30 0] [0x2 1 1 [0 0] [2 4]] (REQUEST)
r 0.101148471 _3_ RTR  --- 0 AODV 48 [0 ffffffff 2 800] ------- [2:255 -1:255 30 0] [0x2 1 1 [0 0] [2 4]] (REQUEST)
r 0.101148745 _4_ RTR  --- 0 AODV 48 [0 ffffffff 2 800] ------- [2:255 -1:255 30 0] [0x2 1 1 [0 0] [2 4]] (REQUEST)
r 0.101149014 _1_ RTR  --- 0 AODV 48 [0 ffffffff 2 800] ------- [2:255 -1:255 30 0] [0x2 1 1 [0 0] [2 4]] (REQUEST)
r 0.101149223 _5_ RTR  --- 0 AODV 48 [0 ffffffff 2 800] ------- [2:255 -1:255 30 0] [0x2 1 1 [0 0] [2 4]] (REQUEST)
r 0.101149740 _0_ RTR  --- 0 AODV 48 [0 ffffffff 2 800] ------- [2:255 -1:255 30 0] [0x2 1 1 [0 0] [2 4]] (REQUEST)
s 0.101149740 _0_ RTR  --- 0 AODV 44 [0 0 0 0] ------- [0:255 2:255 30 2] [0x4 1 [0 4] 10.000000] (REPLY)
s 0.101204740 _0_ MAC  --- 0 ARP 86 [0 ffffffff 0 806] ------- [REQUEST 0/0 0/2]
r 0.101893485 _1_ MAC  --- 0 ARP 28 [0 ffffffff 0 806] ------- [REQUEST 0/0 0/2]
r 0.101894480 _2_ MAC  --- 0 ARP 28 [0 ffffffff 0 806] ------- [REQUEST 0/0 0/2]
r 0.101894907 _3_ MAC  --- 0 ARP 28 [0 ffffffff 0 806] ------- [REQUEST 0/0 0/2]
r 0.101895055 _4_ MAC  --- 0 ARP 28 [0 ffffffff 0 806] ------- [REQUEST 0/0 0/2]
r 0.101895369 _5_ MAC  --- 0 ARP 28 [0 ffffffff 0 806] ------- [REQUEST 0/0 0/2]
s 0.102324480 _2_ MAC  --- 0 RTS 44 [52e 0 2 0] 
s 0.102346727 _4_ RTR  --- 0 AODV 48 [0 ffffffff 2 800] ------- [4:255 -1:255 29 0] [0x2 2 1 [0 0] [2 4]] (REQUEST)
r 0.102678220 _0_ MAC  --- 0 RTS 44 [52e 0 2 0] 
s 0.102688220 _0_ MAC  --- 0 CTS 38 [3f4 2 0 0] 
r 0.102993960 _2_ MAC  --- 0 CTS 38 [3f4 2 0 0] 
s 0.103003960 _2_ MAC  --- 0 ARP 86 [13a 0 2 806] ------- [REPLY 2/2 0/0]
r 0.103693700 _0_ MAC  --- 0 ARP 28 [13a 0 2 806] ------- [REPLY 2/2 0/0]
s 0.103703700 _0_ MAC  --- 0 ACK 38 [0 2 0 0] 
r 0.104009440 _2_ MAC  --- 0 ACK 38 [0 2 0 0] 
s 0.104257700 _0_ MAC  --- 0 RTS 44 [5ae 2 0 0] 
r 0.104611440 _2_ MAC  --- 0 RTS 44 [5ae 2 0 0] 
s 0.104621440 _2_ MAC  --- 0 CTS 38 [474 0 0 0] 
r 0.104927180 _0_ MAC  --- 0 CTS 38 [474 0 0 0] 
s 0.104937180 _0_ MAC  --- 0 AODV 102 [13a 2 0 800] ------- [0:255 2:255 30 2] [0x4 1 [0 4] 10.000000] (REPLY)
r 0.105754920 _2_ MAC  --- 0 AODV 44 [13a 2 0 800] ------- [0:255 2:255 30 2] [0x4 1 [0 4] 10.000000] (REPLY)
s 0.105764920 _2_ MAC  --- 0 ACK 38 [0 0 0 0] 
r 0.105779920 _2_ RTR  --- 0 AODV 44 [13a 2 0 800] ------- [0:255 2:255 30 2] [0x4 1 [0 4] 10.000000] (REPLY)
s 0.105779920 _2_ RTR  --- 6 cbr 1020 [0 0 0 0] ------- [2:0 0:0 30 0] [0] 0 0
r 0.106070660 _0_ MAC  --- 0 ACK 38 [0 0 0 0] 
s 0.106138920 _2_ MAC  --- 0 RTS 44 [242e 0 2 0] 
s 0.106277994 _5_ RTR  --- 0 AODV 48 [0 ffffffff 2 800] ------- [5:255 -1:255 29 0] [0x2 2 1 [0 0] [2 4]] (REQUEST)
s 0.106338465 _3_ RTR  --- 0 AODV 48 [0 ffffffff 2 800] ------- [3:255 -1:255 29 0] [0x2 2 1 [0 0] [2 4]] (REQUEST)
r 0.106492660 _0_ MAC  --- 0 RTS 44 [242e 0 2 0] 
s 0.106502660 _0_ MAC  --- 0 CTS 38 [22f4 2 0 0] 
r 0.106808401 _2_ MAC  --- 0 CTS 38 [22f4 2 0 0] 
s 0.106818401 _2_ MAC  --- 6 cbr 1078 [13a 0 2 800] ------- [2:0 0:0 30 0] [0] 0 0
s 0.107142857 _1_ AGT  --- 7 cbr 1000 [0 0 0 0] ------- [1:0 4:0 32 0] [6] 0 0
r 0.107142857 _1_ RTR  --- 7 cbr 1000 [0 0 0 0] ------- [1:0 4:0 32 0] [6] 0 0
s 0.107142857 _1_ RTR  --- 7 cbr 1020 [0 0 0 0] ------- [1:0 4:0 30 4] [6] 0 0
s 0.107247851 _1_ RTR  --- 0 AODV 48 [0 ffffffff 2 800] ------- [1:255 -1:255 29 0] [0x2 2 1 [0 0] [2 4]] (REQUEST)
s 0.108000000 _2_ AGT  --- 8 cbr 1000 [0 0 0 0] ------- [2:0 0:0 32 0] [1] 0 0
r 0.108000000 _2_ RTR  --- 8 cbr 1000 [0 0 0 0] ------- [2:0 0:0 32 0] [1] 0 0
s 0.108000000 _2_ RTR  --- 8 cbr 1020 [0 0 0 0] ------- [2:0 0:0 30 0] [1] 0 0
r 0.115444141 _0_ MAC  --- 6 cbr 1020 [13a 0 2 800] ------- [2:0 0:0 30 0] [0] 1 0
s 0.115454141 _0_ MAC  --- 0 ACK 38 [0 2 0 0] 
r 0.115469141 _0_ AGT  --- 6 cbr 1020 [13a 0 2 800] ------- [2:0 0:0 30 0] [0] 1 0
r 0.115759881 _2_ MAC  --- 0 ACK 38 [0 2 0 0] 
s 0.115908886 _1_ MAC  --- 0 RTS 44 [242e 4 1 0] 
s 0.116000000 _2_ AGT  --- 9 cbr 1000 [0 0 0 0] ------- [2:0 0:0 32 0] [2] 0 0
r 0.116000000 _2_ RTR  --- 9 cbr 1000 [0 0 0 0] ------- [2:0 0:0 32 0] [2] 0 0
s 0.116000000 _2_ RTR  --- 9 cbr 1020 [0 0 0 0] ------- [2:0 0:0 30 0] [2] 0 0
r 0.116262458 _4_ MAC  --- 0 RTS 44 [242e 4 1 0] 
s 0.116272458 _4_ MAC  --- 0 CTS 38 [22f4 1 0 0] 
r 0.116578031 _1_ MAC  --- 0 CTS 38 [22f4 1 0 0] 
s 0.116588031 _1_ MAC  --- 7 cbr 1078 [13a 4 1 800] ------- [1:0 4:0 30 4] [6] 0 0
s 0.124000000 _2_ AGT  --- 10 cbr 1000 [0 0 0 0] ------- [2:0 0:0 32 0] [3] 0 0
r 0.124000000 _2_ RTR  --- 10 cbr 1000 [0 0 0 0] ------- [2:0 0:0 32 0] [3] 0 0
s 0.124000000 _2_ RTR  --- 10 cbr 1020 [0 0 0 0] ------- [2:0 0:0 30 0] [3] 0 0
s 0.125000000 _1_ AGT  --- 11 cbr 1000 [0 0 0 0] ------- [1:0 4:0 32 0] [7] 0 0
r 0.125000000 _1_ RTR  --- 11 cbr 1000 [0 0 0 0] ------- [1:0 4:0 32 0] [7] 0 0
s 0.125000000 _1_ RTR  --- 11 cbr 1020 [0 0 0 0] ------- [1:0 4:0 30 4] [7] 0 0
r 0.125213603 _4_ MAC  --- 7 cbr 1020 [13a 4 1 800] ------- [1:0 4:0 30 4] [6] 1 0
s 0.125223603 _4_ MAC  --- 0 ACK 38 [0 1 0 0] 
r 0.125238603 _4_ AGT  --- 7 cbr 1020 [13a 4 1 800] ------- [1:0 4:0 30 4] [6] 1 0
r 0.125529175 _1_ MAC  --- 0 ACK 38 [0 1 0 0] 
s 0.125597603 _4_ MAC  --- 0 AODV 106 [0 ffffffff 4 800] ------- [4:255 -1:255 29 0] [0x2 2 1 [0 0] [2 4]] (REQUEST)
s 0.125597936 _3_ MAC  --- 0 AODV 106 [0 ffffffff 3 800] ------- [3:255 -1:255 29 0] [0x2 2 1 [0 0] [2 4]] (REQUEST)
D 0.125598408 _2_ MAC  COL 0 AODV 106 [0 ffffffff 4 800] ------- [4:255 -1:255 29 0] [0x2 2 1 [0 0] [2 4]] (REQUEST)
D 0.125598770 _5_ MAC  COL 0 AODV 106 [0 ffffffff 4 800] ------- [4:255 -1:255 29 0] [0x2 2 1 [0 0] [2 4]] (REQUEST)
D 0.125599360 _1_ MAC  COL 0 AODV 106 [0 ffffffff 4 800] ------- [4:255 -1:255 29 0] [0x2 2 1 [0 0] [2 4]] (REQUEST)
D 0.125600103 _0_ MAC  COL 0 AODV 106 [0 ffffffff 4 800] ------- [4:255 -1:255 29 0] [0x2 2 1 [0 0] [2 4]] (REQUEST)
D 0.126446408 _2_ MAC  COL 0 AODV 106 [0 ffffffff 3 800] ------- [3:255 -1:255 29 0] [0x2 2 1 [0 0] [2 4]] (REQUEST)
D 0.126446770 _5_ MAC  COL 0 AODV 106 [0 ffffffff 3 800] ------- [3:255 -1:255 29 0] [0x2 2 1 [0 0] [2 4]] (REQUEST)
D 0.126447360 _1_ MAC  COL 0 AODV 106 [0 ffffffff 3 800] ------- [3:255 -1:255 29 0] [0x2 2 1 [0 0] [2 4]] (REQUEST)
D 0.126448103 _0_ MAC  COL 0 AODV 106 [0 ffffffff 3 800] ------- [3:255 -1:255 29 0] [0x2 2 1 [0 0] [2 4]] (REQUEST)
s 0.126980770 _5_ MAC  --- 0 AODV 106 [0 ffffffff 5 800] ------- [5:255 -1:255 29 0] [0x2 2 1 [0 0] [2 4]] (REQUEST)
r 0.127829271 _4_ MAC  --- 0 AODV 48 [0 ffffffff 5 800] ------- [5:255 -1:255 29 0] [0x2 2 1 [0 0] [2 4]] (REQUEST)
r 0.127829604 _3_ MAC  --- 0 AODV 48 [0 ffffffff 5 800] ------- [5:255 -1:255 29 0] [0x2 2 1 [0 0] [2 4]] (REQUEST)
r 0.127829993 _2_ MAC  --- 0 AODV 48 [0 ffffffff 5 800] ------- [5:255 -1:255 29 0] [0x2 2 1 [0 0] [2 4]] (REQUEST)
r 0.127830680 _1_ MAC  --- 0 AODV 48 [0 ffffffff 5 800] ------- [5:255 -1:255 29 0] [0x2 2 1 [0 0] [2 4]] (REQUEST)
r 0.127831399 _0_ MAC  --- 0 AODV 48 [0 ffffffff 5 800] ------- [5:255 -1:255 29 0] [0x2 2 1 [0 0] [2 4]] (REQUEST)
r 0.127854271 _4_ RTR  --- 0 AODV 48 [0 ffffffff 5 800] ------- [5:255 -1:255 29 0] [0x2 2 1 [0 0] [2 4]] (REQUEST)
r 0.127854604 _3_ RTR  --- 0 AODV 48 [0 ffffffff 5 800] ------- [5:255 -1:255 29 0] [0x2 2 1 [0 0] [2 4]] (REQUEST)
r 0.127854993 _2_ RTR  --- 0 AODV 48 [0 ffffffff 5 800] ------- [5:255 -1:255 29 0] [0x2 2 1 [0 0] [2 4]] (REQUEST)
r 0.127855680 _1_ RTR  --- 0 AODV 48 [0 ffffffff 5 800] ------- [5:255 -1:255 29 0] [0x2 2 1 [0 0] [2 4]] (REQUEST)
r 0.127856399 _0_ RTR  --- 0 AODV 48 [0 ffffffff 5 800] ------- [5:255 -1:255 29 0] [0x2 2 1 [0 0] [2 4]] (REQUEST)
s 0.128060680 _1_ MAC  --- 0 AODV 106 [0 ffffffff 1 800] ------- [1:255 -1:255 29 0] [0x2 2 1 [0 0] [2 4]] (REQUEST)
r 0.128909425 _0_ MAC  --- 0 AODV 48 [0 ffffffff 1 800] ------- [1:255 -1:255 29 0] [0x2 2 1 [0 0] [2 4]] (REQUEST)
r 0.128909693 _2_ MAC  --- 0 AODV 48 [0 ffffffff 1 800] ------- [1:255 -1:255 29 0] [0x2 2 1 [0 0] [2 4]] (REQUEST)
r 0.128910104 _3_ MAC  --- 0 AODV 48 [0 ffffffff 1 800] ------- [1:255 -1:255 29 0] [0x2 2 1 [0 0] [2 4]] (REQUEST)
r 0.128910252 _4_ MAC  --- 0 AODV 48 [0 ffffffff 1 800] ------- [1:255 -1:255 29 0] [0x2 2 1 [0 0] [2 4]] (REQUEST)
r 0.128910589 _5_ MAC  --- 0 AODV 48 [0 ffffffff 1 800] ------- [1:255 -1:255 29 0] [0x2 2 1 [0 0] [2 4]] (REQUEST)
r 0.128934425 _0_ RTR  --- 0 AODV 48 [0 ffffffff 1 800] ------- [1:255 -1:255 29 0] [0x2 2 1 [0 0] [2 4]] (REQUEST)
r 0.128934693 _2_ RTR  --- 0 AODV 48 [0 ffffffff 1 800] ------- [1:255 -1:255 29 0] [0x2 2 1 [0 0] [2 4]] (REQUEST)
r 0.128935104 _3_ RTR  --- 0 AODV 48 [0 ffffffff 1 800] ------- [1:255 -1:255 29 0] [0x2 2 1 [0 0] [2 4]] (REQUEST)
r 0.128935252 _4_ RTR  --- 0 AODV 48 [0 ffffffff 1 800] ------- [1:255 -1:255 29 0] [0x2 2 1 [0 0] [2 4]] (REQUEST)
r 0.128935589 _5_ RTR  --- 0 AODV 48 [0 ffffffff 1 800] ------- [1:255 -1:255 29 0] [0x2 2 1 [0 0] [2 4]] (REQUEST)
s 0.128999693 _2_ MAC  --- 0 RTS 44 [242e 0 2 0] 
r 0.129353433 _0_ MAC  --- 0 RTS 44 [242e 0 2 0] 
s 0.129363433 _0_ MAC  --- 0 CTS 38 [22f4 2 0 0] 
r 0.129669173 _2_ MAC  --- 0 CTS 38 [22f4 2 0 0] 
s 0.129679173 _2_ MAC  --- 8 cbr 1078 [13a 0 2 800] ------- [2:0 0:0 30 0] [1] 0 0
s 0.132000000 _2_ AGT  --- 12 cbr 1000 [0 0 0 0] ------- [2:0 0:0 32 0] [4] 0 0
r 0.132000000 _2_ RTR  --- 12 cbr 1000 [0 0 0 0] ------- [2:0 0:0 32 0] [4] 0 0
s 0.132000000 _2_ RTR  --- 12 cbr 1020 [0 0 0 0] ------- [2:0 0:0 30 0] [4] 0 0
r 0.138304914 _0_ MAC  --- 8 cbr 1020 [13a 0 2 800] ------- [2:0 0:0 30 0] [1] 1 0
s 0.138314914 _0_ MAC  --- 0 ACK 38 [0 2 0 0] 
r 0.138329914 _0_ AGT  --- 8 cbr 1020 [13a 0 2 800] ------- [2:0 0:0 30 0] [1] 1 0
r 0.138620654 _2_ MAC  --- 0 ACK 38 [0 2 0 0] 
s 0.139089659 _1_ MAC  --- 0 RTS 44 [242e 4 1 0] 
r 0.139443231 _4_ MAC  --- 0 RTS 44 [242e 4 1 0] 
s 0.139453231 _4_ MAC  --- 0 CTS 38 [22f4 1 0 0] 
r 0.139758804 _1_ MAC  --- 0 CTS 38 [22f4 1 0 0] 
s 0.139768804 _1_ MAC  --- 11 cbr 1078 [13a 4 1 800] ------- [1:0 4:0 30 4] [7] 0 0
s 0.140000000 _2_ AGT  --- 13 cbr 1000 [0 0 0 0] ------- [2:0 0:0 32 0] [5] 0 0
r 0.140000000 _2_ RTR  --- 13 cbr 1000 [0 0 0 0] ------- [2:0 0:0 32 0] [5] 0 0
s 0.140000000 _2_ RTR  --- 13 cbr 1020 [0 0 0 0] ------- [2:0 0:0 30 0] [5] 0 0
s 0.142857143 _1_ AGT  --- 14 cbr 1000 [0 0 0 0] ------- [1:0 4:0 32 0] [8] 0 0
r 0.142857143 _1_ RTR  --- 14 cbr 1000 [0 0 0 0] ------- [1:0 4:0 32 0] [8] 0 0
s 0.142857143 _1_ RTR  --- 14 cbr 1020 [0 0 0 0] ------- [1:0 4:0 30 4] [8] 0 0
s 0.148000000 _2_ AGT  --- 15 cbr 1000 [0 0 0 0] ------- [2:0 0:0 32 0] [6] 0 0
r 0.148000000 _2_ RTR  --- 15 cbr 1000 [0 0 0 0] ------- [2:0 0:0 32 0] [6] 0 0
s 0.148000000 _2_ RTR  --- 15 cbr 1020 [0 0 0 0] ------- [2:0 0:0 30 0] [6] 0 0
r 0.148394376 _4_ MAC  --- 11 cbr 1020 [13a 4 1 800] ------- [1:0 4:0 30 4] [7] 1 0
s 0.148404376 _4_ MAC  --- 0 ACK 38 [0 1 0 0] 
r 0.148419376 _4_ AGT  --- 11 cbr 1020 [13a 4 1 800] ------- [1:0 4:0 30 4] [7] 1 0
r 0.148709948 _1_ MAC  --- 0 ACK 38 [0 1 0 0] 
s 0.148759948 _1_ MAC  --- 0 RTS 44 [242e 4 1 0] 
r 0.149113521 _4_ MAC  --- 0 RTS 44 [242e 4 1 0] 
s 0.149123521 _4_ MAC  --- 0 CTS 38 [22f4 1 0 0] 
r 0.149429093 _1_ MAC  --- 0 CTS 38 [22f4 1 0 0] 
s 0.149439093 _1_ MAC  --- 14 cbr 1078 [13a 4 1 800] ------- [1:0 4:0 30 4] [8] 0 0
s 0.156000000 _2_ AGT  --- 16 cbr 1000 [0 0 0 0] ------- [2:0 0:0 32 0] [7] 0 0
r 0.156000000 _2_ RTR  --- 16 cbr 1000 [0 0 0 0] ------- [2:0 0:0 32 0] [7] 0 0
s 0.156000000 _2_ RTR  --- 16 cbr 1020 [0 0 0 0] ------- [2:0 0:0 30 0] [7] 0 0
r 0.158064665 _4_ MAC  --- 14 cbr 1020 [13a 4 1 800] ------- [1:0 4:0 30 4] [8] 1 0
s 0.158074665 _4_ MAC  --- 0 ACK 38 [0 1 0 0] 
r 0.158089665 _4_ AGT  --- 14 cbr 1020 [13a 4 1 800] ------- [1:0 4:0 30 4] [8] 1 0
r 0.158380238 _1_ MAC  --- 0 ACK 38 [0 1 0 0] 
s 0.158589411 _2_ MAC  --- 0 RTS 44 [242e 0 2 0] 
r 0.158943151 _0_ MAC  --- 0 RTS 44 [242e 0 2 0] 
s 0.158953151 _0_ MAC  --- 0 CTS 38 [22f4 2 0 0] 
r 0.159258891 _2_ MAC  --- 0 CTS 38 [22f4 2 0 0] 
s 0.159268891 _2_ MAC  --- 9 cbr 1078 [13a 0 2 800] ------- [2:0 0:0 30 0] [2] 0 0
s 0.160714286 _1_ AGT  --- 17 cbr 1000 [0 0 0 0] ------- [1:0 4:0 32 0] [9] 0 0
r 0.160714286 _1_ RTR  --- 17 cbr 1000 [0 0 0 0] ------- [1:0 4:0 32 0] [9] 0 0
s 0.160714286 _1_ RTR  --- 17 cbr 1020 [0 0 0 0] ------- [1:0 4:0 30 4] [9] 0 0
s 0.164000000 _2_ AGT  --- 18 cbr 1000 [0 0 0 0] ------- [2:0 0:0 32 0] [8] 0 0
r 0.164000000 _2_ RTR  --- 18 cbr 1000 [0 0 0 0] ------- [2:0 0:0 32 0] [8] 0 0
s 0.164000000 _2_ RTR  --- 18 cbr 1020 [0 0 0 0] ------- [2:0 0:0 30 0] [8] 0 0
D 0.164025000 _2_ IFQ  --- 18 cbr 1020 [0 0 2 800] ------- [2:0 0:0 30 0] [8] 0 0
r 0.167894631 _0_ MAC  --- 9 cbr 1020 [13a 0 2 800] ------- [2:0 0:0 30 0] [2] 1 0
s 0.167904631 _0_ MAC  --- 0 ACK 38 [0 2 0 0] 
r 0.167919631 _0_ AGT  --- 9 cbr 1020 [13a 0 2 800] ------- [2:0 0:0 30 0] [2] 1 0
r 0.168210371 _2_ MAC  --- 0 ACK 38 [0 2 0 0] 
s 0.168339376 _1_ MAC  --- 0 RTS 44 [242e 4 1 0] 
r 0.168692948 _4_ MAC  --- 0 RTS 44 [242e 4 1 0] 
s 0.168702948 _4_ MAC  --- 0 CTS 38 [22f4 1 0 0] 
r 0.169008521 _1_ MAC  --- 0 CTS 38 [22f4 1 0 0] 
s 0.169018521 _1_ MAC  --- 17 cbr 1078 [13a 4 1 800] ------- [1:0 4:0 30 4] [9] 0 0
s 0.172000000 _2_ AGT  --- 19 cbr 1000 [0 0 0 0] ------- [2:0 0:0 32 0] [9] 0 0
r 0.172000000 _2_ RTR  --- 19 cbr 1000 [0 0 0 0] ------- [2:0 0:0 32 0] [9] 0 0
s 0.172000000 _2_ RTR  --- 19 cbr 1020 [0 0 0 0] ------- [2:0 0:0 30 0] [9] 0 0
r 0.177644093 _4_ MAC  --- 17 cbr 1020 [13a 4 1 800] ------- [1:0 4:0 30 4] [9] 1 0
s 0.177654093 _4_ MAC  --- 0 ACK 38 [0 1 0 0] 
r 0.177669093 _4_ AGT  --- 17 cbr 1020 [13a 4 1 800] ------- [1:0 4:0 30 4] [9] 1 0
r 0.177959665 _1_ MAC  --- 0 ACK 38 [0 1 0 0] 
s 0.178328838 _2_ MAC  --- 0 RTS 44 [242e 0 2 0] 
s 0.178571429 _1_ AGT  --- 20 cbr 1000 [0 0 0 0] ------- [1:0 4:0 32 0] [10] 0 0
r 0.178571429 _1_ RTR  --- 20 cbr 1000 [0 0 0 0] ------- [1:0 4:0 32 0] [10] 0 0
s 0.178571429 _1_ RTR  --- 20 cbr 1020 [0 0 0 0] ------- [1:0 4:0 30 4] [10] 0 0
r 0.178682578 _0_ MAC  --- 0 RTS 44 [242e 0 2 0] 
s 0.178692578 _0_ MAC  --- 0 CTS 38 [22f4 2 0 0] 
r 0.178998319 _2_ MAC  --- 0 CTS 38 [22f4 2 0 0] 
s 0.179008319 _2_ MAC  --- 10 cbr 1078 [13a 0 2 800] ------- [2:0 0:0 30 0] [3] 0 0
s 0.180000000 _2_ AGT  --- 21 cbr 1000 [0 0 0 0] ------- [2:0 0:0 32 0] [10] 0 0
r 0.180000000 _2_ RTR  --- 21 cbr 1000 [0 0 0 0] ------- [2:0 0:0 32 0] [10] 0 0
s 0.180000000 _2_ RTR  --- 21 cbr 1020 [0 0 0 0] ------- [2:0 0:0 30 0] [10] 0 0
D 0.180025000 _2_ IFQ  --- 21 cbr 1020 [0 0 2 800] ------- [2:0 0:0 30 0] [10] 0 0
r 0.187634059 _0_ MAC  --- 10 cbr 1020 [13a 0 2 800] ------- [2:0 0:0 30 0] [3] 1 0
s 0.187644059 _0_ MAC  --- 0 ACK 38 [0 2 0 0] 
r 0.187659059 _0_ AGT  --- 10 cbr 1020 [13a 0 2 800] ------- [2:0 0:0 30 0] [3] 1 0
r 0.187949799 _2_ MAC  --- 0 ACK 38 [0 2 0 0] 
s 0.188000000 _2_ AGT  --- 22 cbr 1000 [0 0 0 0] ------- [2:0 0:0 32 0] [11] 0 0
r 0.188000000 _2_ RTR  --- 22 cbr 1000 [0 0 0 0] ------- [2:0 0:0 32 0] [11] 0 0
s 0.188000000 _2_ RTR  --- 22 cbr 1020 [0 0 0 0] ------- [2:0 0:0 30 0] [11] 0 0
s 0.188258804 _1_ MAC  --- 0 RTS 44 [242e 4 1 0] 
r 0.188612376 _4_ MAC  --- 0 RTS 44 [242e 4 1 0] 
s 0.188622376 _4_ MAC  --- 0 CTS 38 [22f4 1 0 0] 
r 0.188927949 _1_ MAC  --- 0 CTS 38 [22f4 1 0 0] 
s 0.188937949 _1_ MAC  --- 20 cbr 1078 [13a 4 1 800] ------- [1:0 4:0 30 4] [10] 0 0
s 0.196000000 _2_ AGT  --- 23 cbr 1000 [0 0 0 0] ------- [2:0 0:0 32 0] [12] 0 0
r 0.196000000 _2_ RTR  --- 23 cbr 1000 [0 0 0 0] ------- [2:0 0:0 32 0] [12] 0 0
s 0.196000000 _2_ RTR  --- 23 cbr 1020 [0 0 0 0] ------- [2:0 0:0 30 0] [12] 0 0
D 0.196025000 _2_ IFQ  --- 23 cbr 1020 [0 0 2 800] ------- [2:0 0:0 30 0] [12] 0 0
s 0.196428571 _1_ AGT  --- 24 cbr 1000 [0 0 0 0] ------- [1:0 4:0 32 0] [11] 0 0
r 0.196428571 _1_ RTR  --- 24 cbr 1000 [0 0 0 0] ------- [1:0 4:0 32 0] [11] 0 0
s 0.196428571 _1_ RTR  --- 24 cbr 1020 [0 0 0 0] ------- [1:0 4:0 30 4] [11] 0 0