n -t * -s 0  -x 200 -y 200 -Z 0 -z 6  -v circle -c black
n -t * -s 1  -x 300 -y 400 -Z 0 -z 6  -v circle -c black
n -t * -s 2  -x 350 -y 700 -Z 0 -z 6  -v circle -c black
n -t * -s 3  -x 450 -y 800 -Z 0 -z 6  -v circle -c black
n -t * -s 4  -x 550 -y 800 -Z 0 -z 6  -v circle -c black
n -t * -s 5  -x 700 -y 810 -Z 0 -z 6  -v circle -c black
V -t * -v 1.0a5 -a 0
W -t * -x 1800 -y 840
A -t * -n 1 -p 0 -o 0x7fffffff -c 30 -a 1
A -t * -h 1 -m 1073741823 -s 0
n -t 0 -s 0 -S DLABEL -l "Server1" -L ""
n -t 0 -s 1 -S DLABEL -l "Server2" -L ""
n -t 0 -s 2 -S DLABEL -l "node2" -L ""
n -t 0 -s 3 -S DLABEL -l "node3" -L ""
n -t 0 -s 4 -S DLABEL -l "node4" -L ""
n -t 0 -s 5 -S DLABEL -l "node5" -L ""
v -t 0 set_rate_ext 0.012500000000000001 1
+ -t 0.000000000 -s 1 -d -1 -p cbr -e 1000 -c 2 -a 0 -i 0 -k AGT 
- -t 0.000000000 -s 1 -d -1 -p cbr -e 1000 -c 2 -a 0 -i 0 -k AGT
h -t 0.000000000 -s 1 -d -1 -p cbr -e 1000 -c 2 -a 0 -i 0 -k AGT
+ -t 0.000000000 -s 1 -d -1 -p AODV -e 48 -c 2 -a 0 -i 0 -k RTR 
- -t 0.000000000 -s 1 -d -1 -p AODV -e 48 -c 2 -a 0 -i 0 -k RTR
h -t 0.000000000 -s 1 -d -1 -p AODV -e 48 -c 2 -a 0 -i 0 -k RTR
+ -t 0.000155000 -s 1 -d -1 -p AODV -e 106 -c 2 -a 0 -i 0 -k MAC 
- -t 0.000155000 -s 1 -d -1 -p AODV -e 106 -c 2 -a 0 -i 0 -k MAC
h -t 0.000155000 -s 1 -d -1 -p AODV -e 106 -c 2 -a 0 -i 0 -k MAC
r -t 0.001003745 -s 0 -d -1 -p AODV -e 48 -c 2 -a 0 -i 0 -k MAC
r -t 0.001004014 -s 2 -d -1 -p AODV -e 48 -c 2 -a 0 -i 0 -k MAC
r -t 0.001004424 -s 3 -d -1 -p AODV -e 48 -c 2 -a 0 -i 0 -k MAC
r -t 0.001004572 -s 4 -d -1 -p AODV -e 48 -c 2 -a 0 -i 0 -k MAC
r -t 0.001004909 -s 5 -d -1 -p AODV -e 48 -c 2 -a 0 -i 0 -k MAC
r -t 0.001028745 -s 0 -d -1 -p AODV -e 48 -c 2 -a 0 -i 0 -k RTR
r -t 0.001029014 -s 2 -d -1 -p AODV -e 48 -c 2 -a 0 -i 0 -k RTR
r -t 0.001029424 -s 3 -d -1 -p AODV -e 48 -c 2 -a 0 -i 0 -k RTR
r -t 0.001029572 -s 4 -d -1 -p AODV -e 48 -c 2 -a 0 -i 0 -k RTR
+ -t 0.001029572 -s 4 -d 1 -p AODV -e 44 -c 2 -a 0 -i 0 -k RTR 
- -t 0.001029572 -s 4 -d 1 -p AODV -e 44 -c 2 -a 0 -i 0 -k RTR
h -t 0.001029572 -s 4 -d 1 -p AODV -e 44 -c 2 -a 0 -i 0 -k RTR
r -t 0.001029909 -s 5 -d -1 -p AODV -e 48 -c 2 -a 0 -i 0 -k RTR
+ -t 0.001564572 -s 4 -d -1 -p ARP -e 86 -c 2 -a 0 -i 0 -k MAC 
- -t 0.001564572 -s 4 -d -1 -p ARP -e 86 -c 2 -a 0 -i 0 -k MAC
h -t 0.001564572 -s 4 -d -1 -p ARP -e 86 -c 2 -a 0 -i 0 -k MAC
r -t 0.002252906 -s 3 -d -1 -p ARP -e 28 -c 2 -a 0 -i 0 -k MAC
r -t 0.002253073 -s 5 -d -1 -p ARP -e 28 -c 2 -a 0 -i 0 -k MAC
r -t 0.002253318 -s 2 -d -1 -p ARP -e 28 -c 2 -a 0 -i 0 -k MAC
r -t 0.002254145 -s 1 -d -1 -p ARP -e 28 -c 2 -a 0 -i 0 -k MAC
r -t 0.002254888 -s 0 -d -1 -p ARP -e 28 -c 2 -a 0 -i 0 -k MAC
+ -t 0.002469145 -s 1 -d -1 -p RTS -e 44 -c 2 -a 0 -i 0 -k MAC 
- -t 0.002469145 -s 1 -d -1 -p RTS -e 44 -c 2 -a 0 -i 0 -k MAC
h -t 0.002469145 -s 1 -d -1 -p RTS -e 44 -c 2 -a 0 -i 0 -k MAC
+ -t 0.002579835 -s 0 -d -1 -p AODV -e 48 -c 2 -a 0 -i 0 -k RTR 
- -t 0.002579835 -s 0 -d -1 -p AODV -e 48 -c 2 -a 0 -i 0 -k RTR
h -t 0.002579835 -s 0 -d -1 -p AODV -e 48 -c 2 -a 0 -i 0 -k RTR
r -t 0.002822717 -s 4 -d -1 -p RTS -e 44 -c 2 -a 0 -i 0 -k MAC
+ -t 0.002832717 -s 4 -d -1 -p CTS -e 38 -c 2 -a 0 -i 0 -k MAC 
- -t 0.002832717 -s 4 -d -1 -p CTS -e 38 -c 2 -a 0 -i 0 -k MAC
h -t 0.002832717 -s 4 -d -1 -p CTS -e 38 -c 2 -a 0 -i 0 -k MAC
r -t 0.003138289 -s 1 -d -1 -p CTS -e 38 -c 2 -a 0 -i 0 -k MAC
+ -t 0.003148289 -s 1 -d -1 -p ARP -e 86 -c 2 -a 0 -i 0 -k MAC 
- -t 0.003148289 -s 1 -d -1 -p ARP -e 86 -c 2 -a 0 -i 0 -k MAC
h -t 0.003148289 -s 1 -d -1 -p ARP -e 86 -c 2 -a 0 -i 0 -k MAC
r -t 0.003837862 -s 4 -d -1 -p ARP -e 28 -c 2 -a 0 -i 0 -k MAC
+ -t 0.003847862 -s 4 -d -1 -p ACK -e 38 -c 2 -a 0 -i 0 -k MAC 
- -t 0.003847862 -s 4 -d -1 -p ACK -e 38 -c 2 -a 0 -i 0 -k MAC
h -t 0.003847862 -s 4 -d -1 -p ACK -e 38 -c 2 -a 0 -i 0 -k MAC
r -t 0.004153434 -s 1 -d -1 -p ACK -e 38 -c 2 -a 0 -i 0 -k MAC
+ -t 0.004301862 -s 4 -d -1 -p RTS -e 44 -c 2 -a 0 -i 0 -k MAC 
- -t 0.004301862 -s 4 -d -1 -p RTS -e 44 -c 2 -a 0 -i 0 -k MAC
h -t 0.004301862 -s 4 -d -1 -p RTS -e 44 -c 2 -a 0 -i 0 -k MAC
+ -t 0.004329861 -s 2 -d -1 -p AODV -e 48 -c 2 -a 0 -i 0 -k RTR 
- -t 0.004329861 -s 2 -d -1 -p AODV -e 48 -c 2 -a 0 -i 0 -k RTR
h -t 0.004329861 -s 2 -d -1 -p AODV -e 48 -c 2 -a 0 -i 0 -k RTR
r -t 0.004655434 -s 1 -d -1 -p RTS -e 44 -c 2 -a 0 -i 0 -k MAC
+ -t 0.004665434 -s 1 -d -1 -p CTS -e 38 -c 2 -a 0 -i 0 -k MAC 
- -t 0.004665434 -s 1 -d -1 -p CTS -e 38 -c 2 -a 0 -i 0 -k MAC
h -t 0.004665434 -s 1 -d -1 -p CTS -e 38 -c 2 -a 0 -i 0 -k MAC
r -t 0.004971006 -s 4 -d -1 -p CTS -e 38 -c 2 -a 0 -i 0 -k MAC
+ -t 0.004981006 -s 4 -d 1 -p AODV -e 102 -c 2 -a 0 -i 0 -k MAC 
- -t 0.004981006 -s 4 -d 1 -p AODV -e 102 -c 2 -a 0 -i 0 -k MAC
h -t 0.004981006 -s 4 -d 1 -p AODV -e 102 -c 2 -a 0 -i 0 -k MAC
r -t 0.005798579 -s 1 -d 1 -p AODV -e 44 -c 2 -a 0 -i 0 -k MAC
+ -t 0.005808579 -s 1 -d -1 -p ACK -e 38 -c 2 -a 0 -i 0 -k MAC 
- -t 0.005808579 -s 1 -d -1 -p ACK -e 38 -c 2 -a 0 -i 0 -k MAC
h -t 0.005808579 -s 1 -d -1 -p ACK -e 38 -c 2 -a 0 -i 0 -k MAC
+ -t 0.005823579 -s 1 -d 4 -p cbr -e 1020 -c 2 -a 0 -i 0 -k RTR 
- -t 0.005823579 -s 1 -d 4 -p cbr -e 1020 -c 2 -a 0 -i 0 -k RTR
h -t 0.005823579 -s 1 -d 4 -p cbr -e 1020 -c 2 -a 0 -i 0 -k RTR
r -t 0.006114151 -s 4 -d -1 -p ACK -e 38 -c 2 -a 0 -i 0 -k MAC
+ -t 0.006482579 -s 1 -d -1 -p RTS -e 44 -c 2 -a 0 -i 0 -k MAC 
- -t 0.006482579 -s 1 -d -1 -p RTS -e 44 -c 2 -a 0 -i 0 -k MAC
h -t 0.006482579 -s 1 -d -1 -p RTS -e 44 -c 2 -a 0 -i 0 -k MAC
r -t 0.006836151 -s 4 -d -1 -p RTS -e 44 -c 2 -a 0 -i 0 -k MAC
+ -t 0.006846151 -s 4 -d -1 -p CTS -e 38 -c 2 -a 0 -i 0 -k MAC 
- -t 0.006846151 -s 4 -d -1 -p CTS -e 38 -c 2 -a 0 -i 0 -k MAC
h -t 0.006846151 -s 4 -d -1 -p CTS -e 38 -c 2 -a 0 -i 0 -k MAC
r -t 0.007151723 -s 1 -d -1 -p CTS -e 38 -c 2 -a 0 -i 0 -k MAC
+ -t 0.007161723 -s 1 -d 4 -p cbr -e 1078 -c 2 -a 0 -i 0 -k MAC 
- -t 0.007161723 -s 1 -d 4 -p cbr -e 1078 -c 2 -a 0 -i 0 -k MAC
h -t 0.007161723 -s 1 -d 4 -p cbr -e 1078 -c 2 -a 0 -i 0 -k MAC
+ -t 0.008477402 -s 5 -d -1 -p AODV -e 48 -c 2 -a 0 -i 0 -k RTR 
- -t 0.008477402 -s 5 -d -1 -p AODV -e 48 -c 2 -a 0 -i 0 -k RTR
h -t 0.008477402 -s 5 -d -1 -p AODV -e 48 -c 2 -a 0 -i 0 -k RTR
+ -t 0.009737362 -s 3 -d -1 -p AODV -e 48 -c 2 -a 0 -i 0 -k RTR 
- -t 0.009737362 -s 3 -d -1 -p AODV -e 48 -c 2 -a 0 -i 0 -k RTR
h -t 0.009737362 -s 3 -d -1 -p AODV -e 48 -c 2 -a 0 -i 0 -k RTR
r -t 0.015787296 -s 4 -d 4 -p cbr -e 1020 -c 2 -a 0 -i 0 -k MAC
+ -t 0.015797296 -s 4 -d -1 -p ACK -e 38 -c 2 -a 0 -i 0 -k MAC 
- -t 0.015797296 -s 4 -d -1 -p ACK -e 38 -c 2 -a 0 -i 0 -k MAC
h -t 0.015797296 -s 4 -d -1 -p ACK -e 38 -c 2 -a 0 -i 0 -k MAC
r -t 0.015812296 -s 4 -d 4 -p cbr -e 1020 -c 2 -a 0 -i 0 -k AGT
+ -t 0.016000000 -s 1 -d -1 -p cbr -e 1000 -c 2 -a 0 -i 1 -k AGT 
- -t 0.016000000 -s 1 -d -1 -p cbr -e 1000 -c 2 -a 0 -i 1 -k AGT
h -t 0.016000000 -s 1 -d -1 -p cbr -e 1000 -c 2 -a 0 -i 1 -k AGT
+ -t 0.016000000 -s 1 -d 4 -p cbr -e 1020 -c 2 -a 0 -i 1 -k RTR 
- -t 0.016000000 -s 1 -d 4 -p cbr -e 1020 -c 2 -a 0 -i 1 -k RTR
h -t 0.016000000 -s 1 -d 4 -p cbr -e 1020 -c 2 -a 0 -i 1 -k RTR
r -t 0.016102868 -s 1 -d -1 -p ACK -e 38 -c 2 -a 0 -i 0 -k MAC
+ -t 0.016151629 -s 3 -d -1 -p AODV -e 106 -c 2 -a 0 -i 0 -k MAC 
- -t 0.016151629 -s 3 -d -1 -p AODV -e 106 -c 2 -a 0 -i 0 -k MAC
h -t 0.016151629 -s 3 -d -1 -p AODV -e 106 -c 2 -a 0 -i 0 -k MAC
r -t 0.016999962 -s 4 -d -1 -p AODV -e 48 -c 2 -a 0 -i 0 -k MAC
r -t 0.017000100 -s 2 -d -1 -p AODV -e 48 -c 2 -a 0 -i 0 -k MAC
r -t 0.017000463 -s 5 -d -1 -p AODV -e 48 -c 2 -a 0 -i 0 -k MAC
r -t 0.017001053 -s 1 -d -1 -p AODV -e 48 -c 2 -a 0 -i 0 -k MAC
r -t 0.017001796 -s 0 -d -1 -p AODV -e 48 -c 2 -a 0 -i 0 -k MAC
r -t 0.017024962 -s 4 -d -1 -p AODV -e 48 -c 2 -a 0 -i 0 -k RTR
r -t 0.017025100 -s 2 -d -1 -p AODV -e 48 -c 2 -a 0 -i 0 -k RTR
r -t 0.017025463 -s 5 -d -1 -p AODV -e 48 -c 2 -a 0 -i 0 -k RTR
r -t 0.017026053 -s 1 -d -1 -p AODV -e 48 -c 2 -a 0 -i 0 -k RTR
r -t 0.017026796 -s 0 -d -1 -p AODV -e 48 -c 2 -a 0 -i 0 -k RTR
+ -t 0.017071796 -s 0 -d -1 -p AODV -e 106 -c 2 -a 0 -i 0 -k MAC 
- -t 0.017071796 -s 0 -d -1 -p AODV -e 106 -c 2 -a 0 -i 0 -k MAC
h -t 0.017071796 -s 0 -d -1 -p AODV -e 106 -c 2 -a 0 -i 0 -k MAC
r -t 0.017920541 -s 1 -d -1 -p AODV -e 48 -c 2 -a 0 -i 0 -k MAC
r -t 0.017921536 -s 2 -d -1 -p AODV -e 48 -c 2 -a 0 -i 0 -k MAC
r -t 0.017921962 -s 3 -d -1 -p AODV -e 48 -c 2 -a 0 -i 0 -k MAC
r -t 0.017922111 -s 4 -d -1 -p AODV -e 48 -c 2 -a 0 -i 0 -k MAC
r -t 0.017922425 -s 5 -d -1 -p AODV -e 48 -c 2 -a 0 -i 0 -k MAC
r -t 0.017945541 -s 1 -d -1 -p AODV -e 48 -c 2 -a 0 -i 0 -k RTR
r -t 0.017946536 -s 2 -d -1 -p AODV -e 48 -c 2 -a 0 -i 0 -k RTR
r -t 0.017946962 -s 3 -d -1 -p AODV -e 48 -c 2 -a 0 -i 0 -k RTR
r -t 0.017947111 -s 4 -d -1 -p AODV -e 48 -c 2 -a 0 -i 0 -k RTR
r -t 0.017947425 -s 5 -d -1 -p AODV -e 48 -c 2 -a 0 -i 0 -k RTR
+ -t 0.018051536 -s 2 -d -1 -p AODV -e 106 -c 2 -a 0 -i 0 -k MAC 
- -t 0.018051536 -s 2 -d -1 -p AODV -e 106 -c 2 -a 0 -i 0 -k MAC
h -t 0.018051536 -s 2 -d -1 -p AODV -e 106 -c 2 -a 0 -i 0 -k MAC
r -t 0.018900007 -s 3 -d -1 -p AODV -e 48 -c 2 -a 0 -i 0 -k MAC
r -t 0.018900281 -s 4 -d -1 -p AODV -e 48 -c 2 -a 0 -i 0 -k MAC
r -t 0.018900549 -s 1 -d -1 -p AODV -e 48 -c 2 -a 0 -i 0 -k MAC
r -t 0.018900759 -s 5 -d -1 -p AODV -e 48 -c 2 -a 0 -i 0 -k MAC
r -t 0.018901276 -s 0 -d -1 -p AODV -e 48 -c 2 -a 0 -i 0 -k MAC
r -t 0.018925007 -s 3 -d -1 -p AODV -e 48 -c 2 -a 0 -i 0 -k RTR
r -t 0.018925281 -s 4 -d -1 -p AODV -e 48 -c 2 -a 0 -i 0 -k RTR
r -t 0.018925549 -s 1 -d -1 -p AODV -e 48 -c 2 -a 0 -i 0 -k RTR
r -t 0.018925759 -s 5 -d -1 -p AODV -e 48 -c 2 -a 0 -i 0 -k RTR
r -t 0.018926276 -s 0 -d -1 -p AODV -e 48 -c 2 -a 0 -i 0 -k RTR
+ -t 0.019090759 -s 5 -d -1 -p AODV -e 106 -c 2 -a 0 -i 0 -k MAC 
- -t 0.019090759 -s 5 -d -1 -p AODV -e 106 -c 2 -a 0 -i 0 -k MAC
h -t 0.019090759 -s 5 -d -1 -p AODV -e 106 -c 2 -a 0 -i 0 -k MAC
r -t 0.019939260 -s 4 -d -1 -p AODV -e 48 -c 2 -a 0 -i 0 -k MAC
r -t 0.019939593 -s 3 -d -1 -p AODV -e 48 -c 2 -a 0 -i 0 -k MAC
r -t 0.019939982 -s 2 -d -1 -p AODV -e 48 -c 2 -a 0 -i 0 -k MAC
r -t 0.019940668 -s 1 -d -1 -p AODV -e 48 -c 2 -a 0 -i 0 -k MAC
r -t 0.019941388 -s 0 -d -1 -p AODV -e 48 -c 2 -a 0 -i 0 -k MAC
r -t 0.019964260 -s 4 -d -1 -p AODV -e 48 -c 2 -a 0 -i 0 -k RTR
r -t 0.019964593 -s 3 -d -1 -p AODV -e 48 -c 2 -a 0 -i 0 -k RTR
r -t 0.019964982 -s 2 -d -1 -p AODV -e 48 -c 2 -a 0 -i 0 -k RTR
r -t 0.019965668 -s 1 -d -1 -p AODV -e 48 -c 2 -a 0 -i 0 -k RTR
r -t 0.019966388 -s 0 -d -1 -p AODV -e 48 -c 2 -a 0 -i 0 -k RTR
+ -t 0.020270668 -s 1 -d -1 -p RTS -e 44 -c 2 -a 0 -i 0 -k MAC 
- -t 0.020270668 -s 1 -d -1 -p RTS -e 44 -c 2 -a 0 -i 0 -k MAC
h -t 0.020270668 -s 1 -d -1 -p RTS -e 44 -c 2 -a 0 -i 0 -k MAC
r -t 0.020624240 -s 4 -d -1 -p RTS -e 44 -c 2 -a 0 -i 0 -k MAC
+ -t 0.020634240 -s 4 -d -1 -p CTS -e 38 -c 2 -a 0 -i 0 -k MAC 
- -t 0.020634240 -s 4 -d -1 -p CTS -e 38 -c 2 -a 0 -i 0 -k MAC
h -t 0.020634240 -s 4 -d -1 -p CTS -e 38 -c 2 -a 0 -i 0 -k MAC
r -t 0.020939813 -s 1 -d -1 -p CTS -e 38 -c 2 -a 0 -i 0 -k MAC
+ -t 0.020949813 -s 1 -d 4 -p cbr -e 1078 -c 2 -a 0 -i 1 -k MAC 
- -t 0.020949813 -s 1 -d 4 -p cbr -e 1078 -c 2 -a 0 -i 1 -k MAC
h -t 0.020949813 -s 1 -d 4 -p cbr -e 1078 -c 2 -a 0 -i 1 -k MAC
r -t 0.029575385 -s 4 -d 4 -p cbr -e 1020 -c 2 -a 0 -i 1 -k MAC
+ -t 0.029585385 -s 4 -d -1 -p ACK -e 38 -c 2 -a 0 -i 0 -k MAC 
- -t 0.029585385 -s 4 -d -1 -p ACK -e 38 -c 2 -a 0 -i 0 -k MAC
h -t 0.029585385 -s 4 -d -1 -p ACK -e 38 -c 2 -a 0 -i 0 -k MAC
r -t 0.029600385 -s 4 -d 4 -p cbr -e 1020 -c 2 -a 0 -i 1 -k AGT
r -t 0.029890957 -s 1 -d -1 -p ACK -e 38 -c 2 -a 0 -i 0 -k MAC
+ -t 0.032000000 -s 1 -d -1 -p cbr -e 1000 -c 2 -a 0 -i 2 -k AGT 
- -t 0.032000000 -s 1 -d -1 -p cbr -e 1000 -c 2 -a 0 -i 2 -k AGT
h -t 0.032000000 -s 1 -d -1 -p cbr -e 1000 -c 2 -a 0 -i 2 -k AGT
+ -t 0.032000000 -s 1 -d 4 -p cbr -e 1020 -c 2 -a 0 -i 2 -k RTR 
- -t 0.032000000 -s 1 -d 4 -p cbr -e 1020 -c 2 -a 0 -i 2 -k RTR
h -t 0.032000000 -s 1 -d 4 -p cbr -e 1020 -c 2 -a 0 -i 2 -k RTR
+ -t 0.032475000 -s 1 -d -1 -p RTS -e 44 -c 2 -a 0 -i 0 -k MAC 
- -t 0.032475000 -s 1 -d -1 -p RTS -e 44 -c 2 -a 0 -i 0 -k MAC
h -t 0.032475000 -s 1 -d -1 -p RTS -e 44 -c 2 -a 0 -i 0 -k MAC
r -t 0.032828572 -s 4 -d -1 -p RTS -e 44 -c 2 -a 0 -i 0 -k MAC
+ -t 0.032838572 -s 4 -d -1 -p CTS -e 38 -c 2 -a 0 -i 0 -k MAC 
- -t 0.032838572 -s 4 -d -1 -p CTS -e 38 -c 2 -a 0 -i 0 -k MAC
h -t 0.032838572 -s 4 -d -1 -p CTS -e 38 -c 2 -a 0 -i 0 -k MAC
r -t 0.033144145 -s 1 -d -1 -p CTS -e 38 -c 2 -a 0 -i 0 -k MAC
+ -t 0.033154145 -s 1 -d 4 -p cbr -e 1078 -c 2 -a 0 -i 2 -k MAC 
- -t 0.033154145 -s 1 -d 4 -p cbr -e 1078 -c 2 -a 0 -i 2 -k MAC
h -t 0.033154145 -s 1 -d 4 -p cbr -e 1078 -c 2 -a 0 -i 2 -k MAC
r -t 0.041779717 -s 4 -d 4 -p cbr -e 1020 -c 2 -a 0 -i 2 -k MAC
+ -t 0.041789717 -s 4 -d -1 -p ACK -e 38 -c 2 -a 0 -i 0 -k MAC 
- -t 0.041789717 -s 4 -d -1 -p ACK -e 38 -c 2 -a 0 -i 0 -k MAC
h -t 0.041789717 -s 4 -d -1 -p ACK -e 38 -c 2 -a 0 -i 0 -k MAC
r -t 0.041804717 -s 4 -d 4 -p cbr -e 1020 -c 2 -a 0 -i 2 -k AGT
r -t 0.042095289 -s 1 -d -1 -p ACK -e 38 -c 2 -a 0 -i 0 -k MAC
+ -t 0.048000000 -s 1 -d -1 -p cbr -e 1000 -c 2 -a 0 -i 3 -k AGT 
- -t 0.048000000 -s 1 -d -1 -p cbr -e 1000 -c 2 -a 0 -i 3 -k AGT
h -t 0.048000000 -s 1 -d -1 -p cbr -e 1000 -c 2 -a 0 -i 3 -k AGT
+ -t 0.048000000 -s 1 -d 4 -p cbr -e 1020 -c 2 -a 0 -i 3 -k RTR 
- -t 0.048000000 -s 1 -d 4 -p cbr -e 1020 -c 2 -a 0 -i 3 -k RTR
h -t 0.048000000 -s 1 -d 4 -p cbr -e 1020 -c 2 -a 0 -i 3 -k RTR
+ -t 0.048635000 -s 1 -d -1 -p RTS -e 44 -c 2 -a 0 -i 0 -k MAC 
- -t 0.048635000 -s 1 -d -1 -p RTS -e 44 -c 2 -a 0 -i 0 -k MAC
h -t 0.048635000 -s 1 -d -1 -p RTS -e 44 -c 2 -a 0 -i 0 -k MAC
r -t 0.048988572 -s 4 -d -1 -p RTS -e 44 -c 2 -a 0 -i 0 -k MAC
+ -t 0.048998572 -s 4 -d -1 -p CTS -e 38 -c 2 -a 0 -i 0 -k MAC 
- -t 0.048998572 -s 4 -d -1 -p CTS -e 38 -c 2 -a 0 -i 0 -k MAC
h -t 0.048998572 -s 4 -d -1 -p CTS -e 38 -c 2 -a 0 -i 0 -k MAC
r -t 0.049304145 -s 1 -d -1 -p CTS -e 38 -c 2 -a 0 -i 0 -k MAC
+ -t 0.049314145 -s 1 -d 4 -p cbr -e 1078 -c 2 -a 0 -i 3 -k MAC 
- -t 0.049314145 -s 1 -d 4 -p cbr -e 1078 -c 2 -a 0 -i 3 -k MAC
h -t 0.049314145 -s 1 -d 4 -p cbr -e 1078 -c 2 -a 0 -i 3 -k MAC
r -t 0.057939717 -s 4 -d 4 -p cbr -e 1020 -c 2 -a 0 -i 3 -k MAC
+ -t 0.057949717 -s 4 -d -1 -p ACK -e 38 -c 2 -a 0 -i 0 -k MAC 
- -t 0.057949717 -s 4 -d -1 -p ACK -e 38 -c 2 -a 0 -i 0 -k MAC
h -t 0.057949717 -s 4 -d -1 -p ACK -e 38 -c 2 -a 0 -i 0 -k MAC
r -t 0.057964717 -s 4 -d 4 -p cbr -e 1020 -c 2 -a 0 -i 3 -k AGT
r -t 0.058255289 -s 1 -d -1 -p ACK -e 38 -c 2 -a 0 -i 0 -k MAC
+ -t 0.064000000 -s 1 -d -1 -p cbr -e 1000 -c 2 -a 0 -i 4 -k AGT 
- -t 0.064000000 -s 1 -d -1 -p cbr -e 1000 -c 2 -a 0 -i 4 -k AGT
h -t 0.064000000 -s 1 -d -1 -p cbr -e 1000 -c 2 -a 0 -i 4 -k AGT
+ -t 0.064000000 -s 1 -d 4 -p cbr -e 1020 -c 2 -a 0 -i 4 -k RTR 
- -t 0.064000000 -s 1 -d 4 -p cbr -e 1020 -c 2 -a 0 -i 4 -k RTR
h -t 0.064000000 -s 1 -d 4 -p cbr -e 1020 -c 2 -a 0 -i 4 -k RTR
+ -t 0.064415000 -s 1 -d -1 -p RTS -e 44 -c 2 -a 0 -i 0 -k MAC 
- -t 0.064415000 -s 1 -d -1 -p RTS -e 44 -c 2 -a 0 -i 0 -k MAC
h -t 0.064415000 -s 1 -d -1 -p RTS -e 44 -c 2 -a 0 -i 0 -k MAC
r -t 0.064768572 -s 4 -d -1 -p RTS -e 44 -c 2 -a 0 -i 0 -k MAC
+ -t 0.064778572 -s 4 -d -1 -p CTS -e 38 -c 2 -a 0 -i 0 -k MAC 
- -t 0.064778572 -s 4 -d -1 -p CTS -e 38 -c 2 -a 0 -i 0 -k MAC
h -t 0.064778572 -s 4 -d -1 -p CTS -e 38 -c 2 -a 0 -i 0 -k MAC
r -t 0.065084145 -s 1 -d -1 -p CTS -e 38 -c 2 -a 0 -i 0 -k MAC
+ -t 0.065094145 -s 1 -d 4 -p cbr -e 1078 -c 2 -a 0 -i 4 -k MAC 
- -t 0.065094145 -s 1 -d 4 -p cbr -e 1078 -c 2 -a 0 -i 4 -k MAC
h -t 0.065094145 -s 1 -d 4 -p cbr -e 1078 -c 2 -a 0 -i 4 -k MAC
r -t 0.073719717 -s 4 -d 4 -p cbr -e 1020 -c 2 -a 0 -i 4 -k MAC
+ -t 0.073729717 -s 4 -d -1 -p ACK -e 38 -c 2 -a 0 -i 0 -k MAC 
- -t 0.073729717 -s 4 -d -1 -p ACK -e 38 -c 2 -a 0 -i 0 -k MAC
h -t 0.073729717 -s 4 -d -1 -p ACK -e 38 -c 2 -a 0 -i 0 -k MAC
r -t 0.073744717 -s 4 -d 4 -p cbr -e 1020 -c 2 -a 0 -i 4 -k AGT
r -t 0.074035289 -s 1 -d -1 -p ACK -e 38 -c 2 -a 0 -i 0 -k MAC
+ -t 0.080000000 -s 1 -d -1 -p cbr -e 1000 -c 2 -a 0 -i 5 -k AGT 
- -t 0.080000000 -s 1 -d -1 -p cbr -e 1000 -c 2 -a 0 -i 5 -k AGT
h -t 0.080000000 -s 1 -d -1 -p cbr -e 1000 -c 2 -a 0 -i 5 -k AGT
+ -t 0.080000000 -s 1 -d 4 -p cbr -e 1020 -c 2 -a 0 -i 5 -k RTR 
- -t 0.080000000 -s 1 -d 4 -p cbr -e 1020 -c 2 -a 0 -i 5 -k RTR
h -t 0.080000000 -s 1 -d 4 -p cbr -e 1020 -c 2 -a 0 -i 5 -k RTR
+ -t 0.080175000 -s 1 -d -1 -p RTS -e 44 -c 2 -a 0 -i 0 -k MAC 
- -t 0.080175000 -s 1 -d -1 -p RTS -e 44 -c 2 -a 0 -i 0 -k MAC
h -t 0.080175000 -s 1 -d -1 -p RTS -e 44 -c 2 -a 0 -i 0 -k MAC
r -t 0.080528572 -s 4 -d -1 -p RTS -e 44 -c 2 -a 0 -i 0 -k MAC
+ -t 0.080538572 -s 4 -d -1 -p CTS -e 38 -c 2 -a 0 -i 0 -k MAC 
- -t 0.080538572 -s 4 -d -1 -p CTS -e 38 -c 2 -a 0 -i 0 -k MAC
h -t 0.080538572 -s 4 -d -1 -p CTS -e 38 -c 2 -a 0 -i 0 -k MAC
r -t 0.080844145 -s 1 -d -1 -p CTS -e 38 -c 2 -a 0 -i 0 -k MAC
+ -t 0.080854145 -s 1 -d 4 -p cbr -e 1078 -c 2 -a 0 -i 5 -k MAC 
- -t 0.080854145 -s 1 -d 4 -p cbr -e 1078 -c 2 -a 0 -i 5 -k MAC
h -t 0.080854145 -s 1 -d 4 -p cbr -e 1078 -c 2 -a 0 -i 5 -k MAC
r -t 0.089479717 -s 4 -d 4 -p cbr -e 1020 -c 2 -a 0 -i 5 -k MAC
+ -t 0.089489717 -s 4 -d -1 -p ACK -e 38 -c 2 -a 0 -i 0 -k MAC 
- -t 0.089489717 -s 4 -d -1 -p ACK -e 38 -c 2 -a 0 -i 0 -k MAC
h -t 0.089489717 -s 4 -d -1 -p ACK -e 38 -c 2 -a 0 -i 0 -k MAC
r -t 0.089504717 -s 4 -d 4 -p cbr -e 1020 -c 2 -a 0 -i 5 -k AGT
r -t 0.089795289 -s 1 -d -1 -p ACK -e 38 -c 2 -a 0 -i 0 -k MAC
+ -t 0.096000000 -s 1 -d -1 -p cbr -e 1000 -c 2 -a 0 -i 6 -k AGT 
- -t 0.096000000 -s 1 -d -1 -p cbr -e 1000 -c 2 -a 0 -i 6 -k AGT
h -t 0.096000000 -s 1 -d -1 -p cbr -e 1000 -c 2 -a 0 -i 6 -k AGT
+ -t 0.096000000 -s 1 -d 4 -p cbr -e 1020 -c 2 -a 0 -i 6 -k RTR 
- -t 0.096000000 -s 1 -d 4 -p cbr -e 1020 -c 2 -a 0 -i 6 -k RTR
h -t 0.096000000 -s 1 -d 4 -p cbr -e 1020 -c 2 -a 0 -i 6 -k RTR
+ -t 0.096555000 -s 1 -d -1 -p RTS -e 44 -c 2 -a 0 -i 0 -k MAC 
- -t 0.096555000 -s 1 -d -1 -p RTS -e 44 -c 2 -a 0 -i 0 -k MAC
h -t 0.096555000 -s 1 -d -1 -p RTS -e 44 -c 2 -a 0 -i 0 -k MAC
r -t 0.096908572 -s 4 -d -1 -p RTS -e 44 -c 2 -a 0 -i 0 -k MAC
+ -t 0.096918572 -s 4 -d -1 -p CTS -e 38 -c 2 -a 0 -i 0 -k MAC 
- -t 0.096918572 -s 4 -d -1 -p CTS -e 38 -c 2 -a 0 -i 0 -k MAC
h -t 0.096918572 -s 4 -d -1 -p CTS -e 38 -c 2 -a 0 -i 0 -k MAC
r -t 0.097224145 -s 1 -d -1 -p CTS -e 38 -c 2 -a 0 -i 0 -k MAC
+ -t 0.097234145 -s 1 -d 4 -p cbr -e 1078 -c 2 -a 0 -i 6 -k MAC 
- -t 0.097234145 -s 1 -d 4 -p cbr -e 1078 -c 2 -a 0 -i 6 -k MAC
h -t 0.097234145 -s 1 -d 4 -p cbr -e 1078 -c 2 -a 0 -i 6 -k MAC
+ -t 0.100000000 -s 2 -d -1 -p cbr -e 1000 -c 2 -a 0 -i 7 -k AGT 
- -t 0.100000000 -s 2 -d -1 -p cbr -e 1000 -c 2 -a 0 -i 7 -k AGT
h -t 0.100000000 -s 2 -d -1 -p cbr -e 1000 -c 2 -a 0 -i 7 -k AGT
+ -t 0.100000000 -s 4 -d -1 -p cbr -e 1000 -c 2 -a 0 -i 8 -k AGT 
- -t 0.100000000 -s 4 -d -1 -p cbr -e 1000 -c 2 -a 0 -i 8 -k AGT
h -t 0.100000000 -s 4 -d -1 -p cbr -e 1000 -c 2 -a 0 -i 8 -k AGT
+ -t 0.100000000 -s 2 -d -1 -p AODV -e 48 -c 2 -a 0 -i 0 -k RTR 
- -t 0.100000000 -s 2 -d -1 -p AODV -e 48 -c 2 -a 0 -i 0 -k RTR
h -t 0.100000000 -s 2 -d -1 -p AODV -e 48 -c 2 -a 0 -i 0 -k RTR
+ -t 0.100000000 -s 4 -d -1 -p AODV -e 48 -c 2 -a 0 -i 0 -k RTR 
- -t 0.100000000 -s 4 -d -1 -p AODV -e 48 -c 2 -a 0 -i 0 -k RTR
h -t 0.100000000 -s 4 -d -1 -p AODV -e 48 -c 2 -a 0 -i 0 -k RTR
r -t 0.105859717 -s 4 -d 4 -p cbr -e 1020 -c 2 -a 0 -i 6 -k MAC
+ -t 0.105869717 -s 4 -d -1 -p ACK -e 38 -c 2 -a 0 -i 0 -k MAC 
- -t 0.105869717 -s 4 -d -1 -p ACK -e 38 -c 2 -a 0 -i 0 -k MAC
h -t 0.105869717 -s 4 -d -1 -p ACK -e 38 -c 2 -a 0 -i 0 -k MAC
r -t 0.105884717 -s 4 -d 4 -p cbr -e 1020 -c 2 -a 0 -i 6 -k AGT
r -t 0.106175289 -s 1 -d -1 -p ACK -e 38 -c 2 -a 0 -i 0 -k MAC
+ -t 0.106223717 -s 4 -d -1 -p AODV -e 106 -c 2 -a 0 -i 0 -k MAC 
- -t 0.106223717 -s 4 -d -1 -p AODV -e 106 -c 2 -a 0 -i 0 -k MAC
h -t 0.106223717 -s 4 -d -1 -p AODV -e 106 -c 2 -a 0 -i 0 -k MAC
r -t 0.107072050 -s 3 -d -1 -p AODV -e 48 -c 2 -a 0 -i 0 -k MAC
r -t 0.107072218 -s 5 -d -1 -p AODV -e 48 -c 2 -a 0 -i 0 -k MAC
r -t 0.107072462 -s 2 -d -1 -p AODV -e 48 -c 2 -a 0 -i 0 -k MAC
r -t 0.107073289 -s 1 -d -1 -p AODV -e 48 -c 2 -a 0 -i 0 -k MAC
r -t 0.107074032 -s 0 -d -1 -p AODV -e 48 -c 2 -a 0 -i 0 -k MAC
r -t 0.107097050 -s 3 -d -1 -p AODV -e 48 -c 2 -a 0 -i 0 -k RTR
+ -t 0.107097050 -s 3 -d 4 -p AODV -e 44 -c 2 -a 0 -i 0 -k RTR 
- -t 0.107097050 -s 3 -d 4 -p AODV -e 44 -c 2 -a 0 -i 0 -k RTR
h -t 0.107097050 -s 3 -d 4 -p AODV -e 44 -c 2 -a 0 -i 0 -k RTR
r -t 0.107097218 -s 5 -d -1 -p AODV -e 48 -c 2 -a 0 -i 0 -k RTR
r -t 0.107097462 -s 2 -d -1 -p AODV -e 48 -c 2 -a 0 -i 0 -k RTR
r -t 0.107098289 -s 1 -d -1 -p AODV -e 48 -c 2 -a 0 -i 0 -k RTR
r -t 0.107099032 -s 0 -d -1 -p AODV -e 48 -c 2 -a 0 -i 0 -k RTR
+ -t 0.107302462 -s 2 -d -1 -p AODV -e 106 -c 2 -a 0 -i 0 -k MAC 
- -t 0.107302462 -s 2 -d -1 -p AODV -e 106 -c 2 -a 0 -i 0 -k MAC
h -t 0.107302462 -s 2 -d -1 -p AODV -e 106 -c 2 -a 0 -i 0 -k MAC
r -t 0.108150934 -s 3 -d -1 -p AODV -e 48 -c 2 -a 0 -i 0 -k MAC
r -t 0.108151208 -s 4 -d -1 -p AODV -e 48 -c 2 -a 0 -i 0 -k MAC
r -t 0.108151476 -s 1 -d -1 -p AODV -e 48 -c 2 -a 0 -i 0 -k MAC
r -t 0.108151685 -s 5 -d -1 -p AODV -e 48 -c 2 -a 0 -i 0 -k MAC
r -t 0.108152202 -s 0 -d -1 -p AODV -e 48 -c 2 -a 0 -i 0 -k MAC
r -t 0.108175934 -s 3 -d -1 -p AODV -e 48 -c 2 -a 0 -i 0 -k RTR
r -t 0.108176208 -s 4 -d -1 -p AODV -e 48 -c 2 -a 0 -i 0 -k RTR
r -t 0.108176476 -s 1 -d -1 -p AODV -e 48 -c 2 -a 0 -i 0 -k RTR
r -t 0.108176685 -s 5 -d -1 -p AODV -e 48 -c 2 -a 0 -i 0 -k RTR
r -t 0.108177202 -s 0 -d -1 -p AODV -e 48 -c 2 -a 0 -i 0 -k RTR
+ -t 0.108177202 -s 0 -d 2 -p AODV -e 44 -c 2 -a 0 -i 0 -k RTR 
- -t 0.108177202 -s 0 -d 2 -p AODV -e 44 -c 2 -a 0 -i 0 -k RTR
h -t 0.108177202 -s 0 -d 2 -p AODV -e 44 -c 2 -a 0 -i 0 -k RTR
+ -t 0.108492202 -s 0 -d -1 -p ARP -e 86 -c 2 -a 0 -i 0 -k MAC 
- -t 0.108492202 -s 0 -d -1 -p ARP -e 86 -c 2 -a 0 -i 0 -k MAC
h -t 0.108492202 -s 0 -d -1 -p ARP -e 86 -c 2 -a 0 -i 0 -k MAC
+ -t 0.109142322 -s 4 -d -1 -p AODV -e 48 -c 2 -a 0 -i 0 -k RTR 
- -t 0.109142322 -s 4 -d -1 -p AODV -e 48 -c 2 -a 0 -i 0 -k RTR
h -t 0.109142322 -s 4 -d -1 -p AODV -e 48 -c 2 -a 0 -i 0 -k RTR
r -t 0.109180948 -s 1 -d -1 -p ARP -e 28 -c 2 -a 0 -i 0 -k MAC
r -t 0.109181942 -s 2 -d -1 -p ARP -e 28 -c 2 -a 0 -i 0 -k MAC
r -t 0.109182369 -s 3 -d -1 -p ARP -e 28 -c 2 -a 0 -i 0 -k MAC
r -t 0.109182518 -s 4 -d -1 -p ARP -e 28 -c 2 -a 0 -i 0 -k MAC
r -t 0.109182832 -s 5 -d -1 -p ARP -e 28 -c 2 -a 0 -i 0 -k MAC
+ -t 0.109253313 -s 3 -d -1 -p AODV -e 48 -c 2 -a 0 -i 0 -k RTR 
- -t 0.109253313 -s 3 -d -1 -p AODV -e 48 -c 2 -a 0 -i 0 -k RTR
h -t 0.109253313 -s 3 -d -1 -p AODV -e 48 -c 2 -a 0 -i 0 -k RTR
+ -t 0.109332518 -s 4 -d -1 -p AODV -e 106 -c 2 -a 0 -i 0 -k MAC 
- -t 0.109332518 -s 4 -d -1 -p AODV -e 106 -c 2 -a 0 -i 0 -k MAC
h -t 0.109332518 -s 4 -d -1 -p AODV -e 106 -c 2 -a 0 -i 0 -k MAC
r -t 0.110180851 -s 3 -d -1 -p AODV -e 48 -c 2 -a 0 -i 0 -k MAC
r -t 0.110181019 -s 5 -d -1 -p AODV -e 48 -c 2 -a 0 -i 0 -k MAC
r -t 0.110181263 -s 2 -d -1 -p AODV -e 48 -c 2 -a 0 -i 0 -k MAC
r -t 0.110182090 -s 1 -d -1 -p AODV -e 48 -c 2 -a 0 -i 0 -k MAC
r -t 0.110182833 -s 0 -d -1 -p AODV -e 48 -c 2 -a 0 -i 0 -k MAC
r -t 0.110205851 -s 3 -d -1 -p AODV -e 48 -c 2 -a 0 -i 0 -k RTR
r -t 0.110206019 -s 5 -d -1 -p AODV -e 48 -c 2 -a 0 -i 0 -k RTR
r -t 0.110206263 -s 2 -d -1 -p AODV -e 48 -c 2 -a 0 -i 0 -k RTR
r -t 0.110207090 -s 1 -d -1 -p AODV -e 48 -c 2 -a 0 -i 0 -k RTR
r -t 0.110207833 -s 0 -d -1 -p AODV -e 48 -c 2 -a 0 -i 0 -k RTR
+ -t 0.110330851 -s 3 -d -1 -p RTS -e 44 -c 2 -a 0 -i 0 -k MAC 
- -t 0.110330851 -s 3 -d -1 -p RTS -e 44 -c 2 -a 0 -i 0 -k MAC
h -t 0.110330851 -s 3 -d -1 -p RTS -e 44 -c 2 -a 0 -i 0 -k MAC
r -t 0.110683184 -s 4 -d -1 -p RTS -e 44 -c 2 -a 0 -i 0 -k MAC
+ -t 0.110693184 -s 4 -d -1 -p CTS -e 38 -c 2 -a 0 -i 0 -k MAC 
- -t 0.110693184 -s 4 -d -1 -p CTS -e 38 -c 2 -a 0 -i 0 -k MAC
h -t 0.110693184 -s 4 -d -1 -p CTS -e 38 -c 2 -a 0 -i 0 -k MAC
r -t 0.110997518 -s 3 -d -1 -p CTS -e 38 -c 2 -a 0 -i 0 -k MAC
+ -t 0.111007518 -s 3 -d 4 -p AODV -e 102 -c 2 -a 0 -i 0 -k MAC 
- -t 0.111007518 -s 3 -d 4 -p AODV -e 102 -c 2 -a 0 -i 0 -k MAC
h -t 0.111007518 -s 3 -d 4 -p AODV -e 102 -c 2 -a 0 -i 0 -k MAC
r -t 0.111823851 -s 4 -d 4 -p AODV -e 44 -c 2 -a 0 -i 0 -k MAC
+ -t 0.111833851 -s 4 -d -1 -p ACK -e 38 -c 2 -a 0 -i 0 -k MAC 
- -t 0.111833851 -s 4 -d -1 -p ACK -e 38 -c 2 -a 0 -i 0 -k MAC
h -t 0.111833851 -s 4 -d -1 -p ACK -e 38 -c 2 -a 0 -i 0 -k MAC
+ -t 0.111848851 -s 4 -d 3 -p cbr -e 1020 -c 2 -a 0 -i 8 -k RTR 
- -t 0.111848851 -s 4 -d 3 -p cbr -e 1020 -c 2 -a 0 -i 8 -k RTR
h -t 0.111848851 -s 4 -d 3 -p cbr -e 1020 -c 2 -a 0 -i 8 -k RTR
+ -t 0.112000000 -s 1 -d -1 -p cbr -e 1000 -c 2 -a 0 -i 9 -k AGT 
- -t 0.112000000 -s 1 -d -1 -p cbr -e 1000 -c 2 -a 0 -i 9 -k AGT
h -t 0.112000000 -s 1 -d -1 -p cbr -e 1000 -c 2 -a 0 -i 9 -k AGT
+ -t 0.112000000 -s 1 -d 4 -p cbr -e 1020 -c 2 -a 0 -i 9 -k RTR 
- -t 0.112000000 -s 1 -d 4 -p cbr -e 1020 -c 2 -a 0 -i 9 -k RTR
h -t 0.112000000 -s 1 -d 4 -p cbr -e 1020 -c 2 -a 0 -i 9 -k RTR
r -t 0.112138184 -s 3 -d -1 -p ACK -e 38 -c 2 -a 0 -i 0 -k MAC
+ -t 0.112211139 -s 5 -d -1 -p AODV -e 48 -c 2 -a 0 -i 0 -k RTR 
- -t 0.112211139 -s 5 -d -1 -p AODV -e 48 -c 2 -a 0 -i 0 -k RTR
h -t 0.112211139 -s 5 -d -1 -p AODV -e 48 -c 2 -a 0 -i 0 -k RTR
+ -t 0.112367851 -s 4 -d -1 -p ARP -e 86 -c 2 -a 0 -i 0 -k MAC 
- -t 0.112367851 -s 4 -d -1 -p ARP -e 86 -c 2 -a 0 -i 0 -k MAC
h -t 0.112367851 -s 4 -d -1 -p ARP -e 86 -c 2 -a 0 -i 0 -k MAC
+ -t 0.112606321 -s 5 -d -1 -p AODV -e 48 -c 2 -a 0 -i 0 -k RTR 
- -t 0.112606321 -s 5 -d -1 -p AODV -e 48 -c 2 -a 0 -i 0 -k RTR
h -t 0.112606321 -s 5 -d -1 -p AODV -e 48 -c 2 -a 0 -i 0 -k RTR
r -t 0.113056184 -s 3 -d -1 -p ARP -e 28 -c 2 -a 0 -i 0 -k MAC
r -t 0.113056352 -s 5 -d -1 -p ARP -e 28 -c 2 -a 0 -i 0 -k MAC
r -t 0.113056596 -s 2 -d -1 -p ARP -e 28 -c 2 -a 0 -i 0 -k MAC
r -t 0.113057423 -s 1 -d -1 -p ARP -e 28 -c 2 -a 0 -i 0 -k MAC
r -t 0.113058167 -s 0 -d -1 -p ARP -e 28 -c 2 -a 0 -i 0 -k MAC
+ -t 0.113206352 -s 5 -d -1 -p AODV -e 106 -c 2 -a 0 -i 0 -k MAC 
- -t 0.113206352 -s 5 -d -1 -p AODV -e 106 -c 2 -a 0 -i 0 -k MAC
h -t 0.113206352 -s 5 -d -1 -p AODV -e 106 -c 2 -a 0 -i 0 -k MAC
r -t 0.114054853 -s 4 -d -1 -p AODV -e 48 -c 2 -a 0 -i 0 -k MAC
r -t 0.114055186 -s 3 -d -1 -p AODV -e 48 -c 2 -a 0 -i 0 -k MAC
r -t 0.114055575 -s 2 -d -1 -p AODV -e 48 -c 2 -a 0 -i 0 -k MAC
r -t 0.114056262 -s 1 -d -1 -p AODV -e 48 -c 2 -a 0 -i 0 -k MAC
r -t 0.114056981 -s 0 -d -1 -p AODV -e 48 -c 2 -a 0 -i 0 -k MAC
r -t 0.114079853 -s 4 -d -1 -p AODV -e 48 -c 2 -a 0 -i 0 -k RTR
r -t 0.114080186 -s 3 -d -1 -p AODV -e 48 -c 2 -a 0 -i 0 -k RTR
r -t 0.114080575 -s 2 -d -1 -p AODV -e 48 -c 2 -a 0 -i 0 -k RTR
r -t 0.114081262 -s 1 -d -1 -p AODV -e 48 -c 2 -a 0 -i 0 -k RTR
r -t 0.114081981 -s 0 -d -1 -p AODV -e 48 -c 2 -a 0 -i 0 -k RTR
+ -t 0.114125575 -s 2 -d -1 -p RTS -e 44 -c 2 -a 0 -i 0 -k MAC 
- -t 0.114125575 -s 2 -d -1 -p RTS -e 44 -c 2 -a 0 -i 0 -k MAC
h -t 0.114125575 -s 2 -d -1 -p RTS -e 44 -c 2 -a 0 -i 0 -k MAC
+ -t 0.114187814 -s 1 -d -1 -p AODV -e 48 -c 2 -a 0 -i 0 -k RTR 
- -t 0.114187814 -s 1 -d -1 -p AODV -e 48 -c 2 -a 0 -i 0 -k RTR
h -t 0.114187814 -s 1 -d -1 -p AODV -e 48 -c 2 -a 0 -i 0 -k RTR
+ -t 0.114260244 -s 0 -d -1 -p AODV -e 48 -c 2 -a 0 -i 0 -k RTR 
- -t 0.114260244 -s 0 -d -1 -p AODV -e 48 -c 2 -a 0 -i 0 -k RTR
h -t 0.114260244 -s 0 -d -1 -p AODV -e 48 -c 2 -a 0 -i 0 -k RTR
r -t 0.114479315 -s 0 -d -1 -p RTS -e 44 -c 2 -a 0 -i 0 -k MAC
+ -t 0.114489315 -s 0 -d -1 -p CTS -e 38 -c 2 -a 0 -i 0 -k MAC 
- -t 0.114489315 -s 0 -d -1 -p CTS -e 38 -c 2 -a 0 -i 0 -k MAC
h -t 0.114489315 -s 0 -d -1 -p CTS -e 38 -c 2 -a 0 -i 0 -k MAC
r -t 0.114795055 -s 2 -d -1 -p CTS -e 38 -c 2 -a 0 -i 0 -k MAC
+ -t 0.114805055 -s 2 -d -1 -p ARP -e 86 -c 2 -a 0 -i 0 -k MAC 
- -t 0.114805055 -s 2 -d -1 -p ARP -e 86 -c 2 -a 0 -i 0 -k MAC
h -t 0.114805055 -s 2 -d -1 -p ARP -e 86 -c 2 -a 0 -i 0 -k MAC
+ -t 0.115128209 -s 1 -d -1 -p AODV -e 48 -c 2 -a 0 -i 0 -k RTR 
- -t 0.115128209 -s 1 -d -1 -p AODV -e 48 -c 2 -a 0 -i 0 -k RTR
h -t 0.115128209 -s 1 -d -1 -p AODV -e 48 -c 2 -a 0 -i 0 -k RTR
+ -t 0.115214977 -s 2 -d -1 -p AODV -e 48 -c 2 -a 0 -i 0 -k RTR 
- -t 0.115214977 -s 2 -d -1 -p AODV -e 48 -c 2 -a 0 -i 0 -k RTR
h -t 0.115214977 -s 2 -d -1 -p AODV -e 48 -c 2 -a 0 -i 0 -k RTR
r -t 0.115494795 -s 0 -d -1 -p ARP -e 28 -c 2 -a 0 -i 0 -k MAC
+ -t 0.115504795 -s 0 -d -1 -p ACK -e 38 -c 2 -a 0 -i 0 -k MAC 
- -t 0.115504795 -s 0 -d -1 -p ACK -e 38 -c 2 -a 0 -i 0 -k MAC
h -t 0.115504795 -s 0 -d -1 -p ACK -e 38 -c 2 -a 0 -i 0 -k MAC
r -t 0.115810535 -s 2 -d -1 -p ACK -e 38 -c 2 -a 0 -i 0 -k MAC
+ -t 0.115880535 -s 2 -d -1 -p AODV -e 106 -c 2 -a 0 -i 0 -k MAC 
- -t 0.115880535 -s 2 -d -1 -p AODV -e 106 -c 2 -a 0 -i 0 -k MAC
h -t 0.115880535 -s 2 -d -1 -p AODV -e 106 -c 2 -a 0 -i 0 -k MAC
+ -t 0.116000000 -s 2 -d -1 -p cbr -e 1000 -c 2 -a 0 -i 10 -k AGT 
- -t 0.116000000 -s 2 -d -1 -p cbr -e 1000 -c 2 -a 0 -i 10 -k AGT
h -t 0.116000000 -s 2 -d -1 -p cbr -e 1000 -c 2 -a 0 -i 10 -k AGT
+ -t 0.116000000 -s 4 -d -1 -p cbr -e 1000 -c 2 -a 0 -i 11 -k AGT 
- -t 0.116000000 -s 4 -d -1 -p cbr -e 1000 -c 2 -a 0 -i 11 -k AGT
h -t 0.116000000 -s 4 -d -1 -p cbr -e 1000 -c 2 -a 0 -i 11 -k AGT
+ -t 0.116000000 -s 4 -d 3 -p cbr -e 1020 -c 2 -a 0 -i 11 -k RTR 
- -t 0.116000000 -s 4 -d 3 -p cbr -e 1020 -c 2 -a 0 -i 11 -k RTR
h -t 0.116000000 -s 4 -d 3 -p cbr -e 1020 -c 2 -a 0 -i 11 -k RTR
d -t 0.116000000 -s 4 -d 3 -p cbr -e 1020 -c 2 -a 0 -i 8 -k IFQ
r -t 0.116729007 -s 3 -d -1 -p AODV -e 48 -c 2 -a 0 -i 0 -k MAC
r -t 0.116729281 -s 4 -d -1 -p AODV -e 48 -c 2 -a 0 -i 0 -k MAC
r -t 0.116729549 -s 1 -d -1 -p AODV -e 48 -c 2 -a 0 -i 0 -k MAC
r -t 0.116729758 -s 5 -d -1 -p AODV -e 48 -c 2 -a 0 -i 0 -k MAC
r -t 0.116730275 -s 0 -d -1 -p AODV -e 48 -c 2 -a 0 -i 0 -k MAC
r -t 0.116754007 -s 3 -d -1 -p AODV -e 48 -c 2 -a 0 -i 0 -k RTR
r -t 0.116754281 -s 4 -d -1 -p AODV -e 48 -c 2 -a 0 -i 0 -k RTR
r -t 0.116754549 -s 1 -d -1 -p AODV -e 48 -c 2 -a 0 -i 0 -k RTR
r -t 0.116754758 -s 5 -d -1 -p AODV -e 48 -c 2 -a 0 -i 0 -k RTR