s 1.000000000 _0_ AGT  --- 0 cbr 210 [0 0 0 0] ------- [0:0 5:0 32 0] [0] 0 0
r 1.000000000 _0_ RTR  --- 0 cbr 210 [0 0 0 0] ------- [0:0 5:0 32 0] [0] 0 0
s 1.000000000 _0_ RTR  --- 0 AODV 48 [0 0 0 0] ------- [0:255 -1:255 30 0] [0x2 1 1 [5 0] [0 4]] (REQUEST)
r 1.000988447 _3_ RTR  --- 0 AODV 48 [0 ffffffff 0 800] ------- [0:255 -1:255 30 0] [0x2 1 1 [5 0] [0 4]] (REQUEST)
r 1.000988486 _1_ RTR  --- 0 AODV 48 [0 ffffffff 0 800] ------- [0:255 -1:255 30 0] [0x2 1 1 [5 0] [0 4]] (REQUEST)
s 1.001000000 _0_ AGT  --- 1 cbr 210 [0 0 0 0] ------- [0:0 5:0 32 0] [1] 0 0
r 1.001000000 _0_ RTR  --- 1 cbr 210 [0 0 0 0] ------- [0:0 5:0 32 0] [1] 0 0
s 1.001869674 _3_ RTR  --- 0 AODV 48 [0 ffffffff 0 800] ------- [3:255 -1:255 29 0] [0x2 2 1 [5 0] [0 4]] (REQUEST)
s 1.002000000 _0_ AGT  --- 2 cbr 210 [0 0 0 0] ------- [0:0 5:0 32 0] [2] 0 0
r 1.002000000 _0_ RTR  --- 2 cbr 210 [0 0 0 0] ------- [0:0 5:0 32 0] [2] 0 0
r 1.002817946 _1_ RTR  --- 0 AODV 48 [0 ffffffff 3 800] ------- [3:255 -1:255 29 0] [0x2 2 1 [5 0] [0 4]] (REQUEST)
r 1.002818121 _0_ RTR  --- 0 AODV 48 [0 ffffffff 3 800] ------- [3:255 -1:255 29 0] [0x2 2 1 [5 0] [0 4]] (REQUEST)
s 1.003000000 _0_ AGT  --- 3 cbr 210 [0 0 0 0] ------- [0:0 5:0 32 0] [3] 0 0
r 1.003000000 _0_ RTR  --- 3 cbr 210 [0 0 0 0] ------- [0:0 5:0 32 0] [3] 0 0
s 1.004000000 _0_ AGT  --- 4 cbr 210 [0 0 0 0] ------- [0:0 5:0 32 0] [4] 0 0
r 1.004000000 _0_ RTR  --- 4 cbr 210 [0 0 0 0] ------- [0:0 5:0 32 0] [4] 0 0
s 1.005000000 _0_ AGT  --- 5 cbr 210 [0 0 0 0] ------- [0:0 5:0 32 0] [5] 0 0
r 1.005000000 _0_ RTR  --- 5 cbr 210 [0 0 0 0] ------- [0:0 5:0 32 0] [5] 0 0
s 1.005400220 _1_ RTR  --- 0 AODV 48 [0 ffffffff 0 800] ------- [1:255 -1:255 29 0] [0x2 2 1 [5 0] [0 4]] (REQUEST)
s 1.006000000 _0_ AGT  --- 6 cbr 210 [0 0 0 0] ------- [0:0 5:0 32 0] [6] 0 0
r 1.006000000 _0_ RTR  --- 6 cbr 210 [0 0 0 0] ------- [0:0 5:0 32 0] [6] 0 0
r 1.006548492 _3_ RTR  --- 0 AODV 48 [0 ffffffff 1 800] ------- [1:255 -1:255 29 0] [0x2 2 1 [5 0] [0 4]] (REQUEST)
r 1.006548706 _0_ RTR  --- 0 AODV 48 [0 ffffffff 1 800] ------- [1:255 -1:255 29 0] [0x2 2 1 [5 0] [0 4]] (REQUEST)
s 1.007000000 _0_ AGT  --- 7 cbr 210 [0 0 0 0] ------- [0:0 5:0 32 0] [7] 0 0
r 1.007000000 _0_ RTR  --- 7 cbr 210 [0 0 0 0] ------- [0:0 5:0 32 0] [7] 0 0
s 1.008000000 _0_ AGT  --- 8 cbr 210 [0 0 0 0] ------- [0:0 5:0 32 0] [8] 0 0
r 1.008000000 _0_ RTR  --- 8 cbr 210 [0 0 0 0] ------- [0:0 5:0 32 0] [8] 0 0
s 1.009000000 _0_ AGT  --- 9 cbr 210 [0 0 0 0] ------- [0:0 5:0 32 0] [9] 0 0
r 1.009000000 _0_ RTR  --- 9 cbr 210 [0 0 0 0] ------- [0:0 5:0 32 0] [9] 0 0
s 1.010000000 _0_ AGT  --- 10 cbr 210 [0 0 0 0] ------- [0:0 5:0 32 0] [10] 0 0
r 1.010000000 _0_ RTR  --- 10 cbr 210 [0 0 0 0] ------- [0:0 5:0 32 0] [10] 0 0
s 1.011000000 _0_ AGT  --- 11 cbr 210 [0 0 0 0] ------- [0:0 5:0 32 0] [11] 0 0
r 1.011000000 _0_ RTR  --- 11 cbr 210 [0 0 0 0] ------- [0:0 5:0 32 0] [11] 0 0
s 1.012000000 _0_ AGT  --- 12 cbr 210 [0 0 0 0] ------- [0:0 5:0 32 0] [12] 0 0
r 1.012000000 _0_ RTR  --- 12 cbr 210 [0 0 0 0] ------- [0:0 5:0 32 0] [12] 0 0
s 1.013000000 _0_ AGT  --- 13 cbr 210 [0 0 0 0] ------- [0:0 5:0 32 0] [13] 0 0
r 1.013000000 _0_ RTR  --- 13 cbr 210 [0 0 0 0] ------- [0:0 5:0 32 0] [13] 0 0
s 1.014000000 _0_ AGT  --- 14 cbr 210 [0 0 0 0] ------- [0:0 5:0 32 0] [14] 0 0
r 1.014000000 _0_ RTR  --- 14 cbr 210 [0 0 0 0] ------- [0:0 5:0 32 0] [14] 0 0
s 1.015000000 _0_ AGT  --- 15 cbr 210 [0 0 0 0] ------- [0:0 5:0 32 0] [15] 0 0
r 1.015000000 _0_ RTR  --- 15 cbr 210 [0 0 0 0] ------- [0:0 5:0 32 0] [15] 0 0
s 1.016000000 _0_ AGT  --- 16 cbr 210 [0 0 0 0] ------- [0:0 5:0 32 0] [16] 0 0
r 1.016000000 _0_ RTR  --- 16 cbr 210 [0 0 0 0] ------- [0:0 5:0 32 0] [16] 0 0
s 1.017000000 _0_ AGT  --- 17 cbr 210 [0 0 0 0] ------- [0:0 5:0 32 0] [17] 0 0
r 1.017000000 _0_ RTR  --- 17 cbr 210 [0 0 0 0] ------- [0:0 5:0 32 0] [17] 0 0
s 1.018000000 _0_ AGT  --- 18 cbr 210 [0 0 0 0] ------- [0:0 5:0 32 0] [18] 0 0
r 1.018000000 _0_ RTR  --- 18 cbr 210 [0 0 0 0] ------- [0:0 5:0 32 0] [18] 0 0
s 1.019000000 _0_ AGT  --- 19 cbr 210 [0 0 0 0] ------- [0:0 5:0 32 0] [19] 0 0
r 1.019000000 _0_ RTR  --- 19 cbr 210 [0 0 0 0] ------- [0:0 5:0 32 0] [19] 0 0
s 1.020000000 _0_ AGT  --- 20 cbr 210 [0 0 0 0] ------- [0:0 5:0 32 0] [20] 0 0
r 1.020000000 _0_ RTR  --- 20 cbr 210 [0 0 0 0] ------- [0:0 5:0 32 0] [20] 0 0
s 1.021000000 _0_ AGT  --- 21 cbr 210 [0 0 0 0] ------- [0:0 5:0 32 0] [21] 0 0
r 1.021000000 _0_ RTR  --- 21 cbr 210 [0 0 0 0] ------- [0:0 5:0 32 0] [21] 0 0
s 1.022000000 _0_ AGT  --- 22 cbr 210 [0 0 0 0] ------- [0:0 5:0 32 0] [22] 0 0
r 1.022000000 _0_ RTR  --- 22 cbr 210 [0 0 0 0] ------- [0:0 5:0 32 0] [22] 0 0
s 1.023000000 _0_ AGT  --- 23 cbr 210 [0 0 0 0] ------- [0:0 5:0 32 0] [23] 0 0
r 1.023000000 _0_ RTR  --- 23 cbr 210 [0 0 0 0] ------- [0:0 5:0 32 0] [23] 0 0
s 1.024000000 _0_ AGT  --- 24 cbr 210 [0 0 0 0] ------- [0:0 5:0 32 0] [24] 0 0
r 1.024000000 _0_ RTR  --- 24 cbr 210 [0 0 0 0] ------- [0:0 5:0 32 0] [24] 0 0
s 1.025000000 _0_ AGT  --- 25 cbr 210 [0 0 0 0] ------- [0:0 5:0 32 0] [25] 0 0
r 1.025000000 _0_ RTR  --- 25 cbr 210 [0 0 0 0] ------- [0:0 5:0 32 0] [25] 0 0
s 1.026000000 _0_ AGT  --- 26 cbr 210 [0 0 0 0] ------- [0:0 5:0 32 0] [26] 0 0
r 1.026000000 _0_ RTR  --- 26 cbr 210 [0 0 0 0] ------- [0:0 5:0 32 0] [26] 0 0
s 1.027000000 _0_ AGT  --- 27 cbr 210 [0 0 0 0] ------- [0:0 5:0 32 0] [27] 0 0
r 1.027000000 _0_ RTR  --- 27 cbr 210 [0 0 0 0] ------- [0:0 5:0 32 0] [27] 0 0
s 1.028000000 _0_ AGT  --- 28 cbr 210 [0 0 0 0] ------- [0:0 5:0 32 0] [28] 0 0
r 1.028000000 _0_ RTR  --- 28 cbr 210 [0 0 0 0] ------- [0:0 5:0 32 0] [28] 0 0
s 1.029000000 _0_ AGT  --- 29 cbr 210 [0 0 0 0] ------- [0:0 5:0 32 0] [29] 0 0
r 1.029000000 _0_ RTR  --- 29 cbr 210 [0 0 0 0] ------- [0:0 5:0 32 0] [29] 0 0
s 1.030000000 _0_ AGT  --- 30 cbr 210 [0 0 0 0] ------- [0:0 5:0 32 0] [30] 0 0
r 1.030000000 _0_ RTR  --- 30 cbr 210 [0 0 0 0] ------- [0:0 5:0 32 0] [30] 0 0
s 1.031000000 _0_ AGT  --- 31 cbr 210 [0 0 0 0] ------- [0:0 5:0 32 0] [31] 0 0
r 1.031000000 _0_ RTR  --- 31 cbr 210 [0 0 0 0] ------- [0:0 5:0 32 0] [31] 0 0
s 1.032000000 _0_ AGT  --- 32 cbr 210 [0 0 0 0] ------- [0:0 5:0 32 0] [32] 0 0
r 1.032000000 _0_ RTR  --- 32 cbr 210 [0 0 0 0] ------- [0:0 5:0 32 0] [32] 0 0
s 1.033000000 _0_ AGT  --- 33 cbr 210 [0 0 0 0] ------- [0:0 5:0 32 0] [33] 0 0
r 1.033000000 _0_ RTR  --- 33 cbr 210 [0 0 0 0] ------- [0:0 5:0 32 0] [33] 0 0
s 1.034000000 _0_ AGT  --- 34 cbr 210 [0 0 0 0] ------- [0:0 5:0 32 0] [34] 0 0
r 1.034000000 _0_ RTR  --- 34 cbr 210 [0 0 0 0] ------- [0:0 5:0 32 0] [34] 0 0
s 1.035000000 _0_ AGT  --- 35 cbr 210 [0 0 0 0] ------- [0:0 5:0 32 0] [35] 0 0
r 1.035000000 _0_ RTR  --- 35 cbr 210 [0 0 0 0] ------- [0:0 5:0 32 0] [35] 0 0
s 1.036000000 _0_ AGT  --- 36 cbr 210 [0 0 0 0] ------- [0:0 5:0 32 0] [36] 0 0
r 1.036000000 _0_ RTR  --- 36 cbr 210 [0 0 0 0] ------- [0:0 5:0 32 0] [36] 0 0
s 1.037000000 _0_ AGT  --- 37 cbr 210 [0 0 0 0] ------- [0:0 5:0 32 0] [37] 0 0
r 1.037000000 _0_ RTR  --- 37 cbr 210 [0 0 0 0] ------- [0:0 5:0 32 0] [37] 0 0
s 1.038000000 _0_ AGT  --- 38 cbr 210 [0 0 0 0] ------- [0:0 5:0 32 0] [38] 0 0
r 1.038000000 _0_ RTR  --- 38 cbr 210 [0 0 0 0] ------- [0:0 5:0 32 0] [38] 0 0
s 1.039000000 _0_ AGT  --- 39 cbr 210 [0 0 0 0] ------- [0:0 5:0 32 0] [39] 0 0
r 1.039000000 _0_ RTR  --- 39 cbr 210 [0 0 0 0] ------- [0:0 5:0 32 0] [39] 0 0
s 1.040000000 _0_ AGT  --- 40 cbr 210 [0 0 0 0] ------- [0:0 5:0 32 0] [40] 0 0
r 1.040000000 _0_ RTR  --- 40 cbr 210 [0 0 0 0] ------- [0:0 5:0 32 0] [40] 0 0
s 1.041000000 _0_ AGT  --- 41 cbr 210 [0 0 0 0] ------- [0:0 5:0 32 0] [41] 0 0
r 1.041000000 _0_ RTR  --- 41 cbr 210 [0 0 0 0] ------- [0:0 5:0 32 0] [41] 0 0
s 1.042000000 _0_ AGT  --- 42 cbr 210 [0 0 0 0] ------- [0:0 5:0 32 0] [42] 0 0
r 1.042000000 _0_ RTR  --- 42 cbr 210 [0 0 0 0] ------- [0:0 5:0 32 0] [42] 0 0
s 1.043000000 _0_ AGT  --- 43 cbr 210 [0 0 0 0] ------- [0:0 5:0 32 0] [43] 0 0
r 1.043000000 _0_ RTR  --- 43 cbr 210 [0 0 0 0] ------- [0:0 5:0 32 0] [43] 0 0
s 1.044000000 _0_ AGT  --- 44 cbr 210 [0 0 0 0] ------- [0:0 5:0 32 0] [44] 0 0
r 1.044000000 _0_ RTR  --- 44 cbr 210 [0 0 0 0] ------- [0:0 5:0 32 0] [44] 0 0
s 1.045000000 _0_ AGT  --- 45 cbr 210 [0 0 0 0] ------- [0:0 5:0 32 0] [45] 0 0
r 1.045000000 _0_ RTR  --- 45 cbr 210 [0 0 0 0] ------- [0:0 5:0 32 0] [45] 0 0
s 1.046000000 _0_ AGT  --- 46 cbr 210 [0 0 0 0] ------- [0:0 5:0 32 0] [46] 0 0
r 1.046000000 _0_ RTR  --- 46 cbr 210 [0 0 0 0] ------- [0:0 5:0 32 0] [46] 0 0
s 1.047000000 _0_ AGT  --- 47 cbr 210 [0 0 0 0] ------- [0:0 5:0 32 0] [47] 0 0
r 1.047000000 _0_ RTR  --- 47 cbr 210 [0 0 0 0] ------- [0:0 5:0 32 0] [47] 0 0
s 1.048000000 _0_ AGT  --- 48 cbr 210 [0 0 0 0] ------- [0:0 5:0 32 0] [48] 0 0
r 1.048000000 _0_ RTR  --- 48 cbr 210 [0 0 0 0] ------- [0:0 5:0 32 0] [48] 0 0
s 1.049000000 _0_ AGT  --- 49 cbr 210 [0 0 0 0] ------- [0:0 5:0 32 0] [49] 0 0
r 1.049000000 _0_ RTR  --- 49 cbr 210 [0 0 0 0] ------- [0:0 5:0 32 0] [49] 0 0
s 1.050000000 _0_ AGT  --- 50 cbr 210 [0 0 0 0] ------- [0:0 5:0 32 0] [50] 0 0
r 1.050000000 _0_ RTR  --- 50 cbr 210 [0 0 0 0] ------- [0:0 5:0 32 0] [50] 0 0
s 1.051000000 _0_ AGT  --- 51 cbr 210 [0 0 0 0] ------- [0:0 5:0 32 0] [51] 0 0
r 1.051000000 _0_ RTR  --- 51 cbr 210 [0 0 0 0] ------- [0:0 5:0 32 0] [51] 0 0
s 1.052000000 _0_ AGT  --- 52 cbr 210 [0 0 0 0] ------- [0:0 5:0 32 0] [52] 0 0
r 1.052000000 _0_ RTR  --- 52 cbr 210 [0 0 0 0] ------- [0:0 5:0 32 0] [52] 0 0
s 1.053000000 _0_ AGT  --- 53 cbr 210 [0 0 0 0] ------- [0:0 5:0 32 0] [53] 0 0
r 1.053000000 _0_ RTR  --- 53 cbr 210 [0 0 0 0] ------- [0:0 5:0 32 0] [53] 0 0
s 1.054000000 _0_ AGT  --- 54 cbr 210 [0 0 0 0] ------- [0:0 5:0 32 0] [54] 0 0
r 1.054000000 _0_ RTR  --- 54 cbr 210 [0 0 0 0] ------- [0:0 5:0 32 0] [54] 0 0
s 1.055000000 _0_ AGT  --- 55 cbr 210 [0 0 0 0] ------- [0:0 5:0 32 0] [55] 0 0
r 1.055000000 _0_ RTR  --- 55 cbr 210 [0 0 0 0] ------- [0:0 5:0 32 0] [55] 0 0
s 1.056000000 _0_ AGT  --- 56 cbr 210 [0 0 0 0] ------- [0:0 5:0 32 0] [56] 0 0
r 1.056000000 _0_ RTR  --- 56 cbr 210 [0 0 0 0] ------- [0:0 5:0 32 0] [56] 0 0
s 1.057000000 _0_ AGT  --- 57 cbr 210 [0 0 0 0] ------- [0:0 5:0 32 0] [57] 0 0
r 1.057000000 _0_ RTR  --- 57 cbr 210 [0 0 0 0] ------- [0:0 5:0 32 0] [57] 0 0
s 1.058000000 _0_ AGT  --- 58 cbr 210 [0 0 0 0] ------- [0:0 5:0 32 0] [58] 0 0
r 1.058000000 _0_ RTR  --- 58 cbr 210 [0 0 0 0] ------- [0:0 5:0 32 0] [58] 0 0
s 1.059000000 _0_ AGT  --- 59 cbr 210 [0 0 0 0] ------- [0:0 5:0 32 0] [59] 0 0
r 1.059000000 _0_ RTR  --- 59 cbr 210 [0 0 0 0] ------- [0:0 5:0 32 0] [59] 0 0
s 1.060000000 _0_ AGT  --- 60 cbr 210 [0 0 0 0] ------- [0:0 5:0 32 0] [60] 0 0
r 1.060000000 _0_ RTR  --- 60 cbr 210 [0 0 0 0] ------- [0:0 5:0 32 0] [60] 0 0
s 1.061000000 _0_ AGT  --- 61 cbr 210 [0 0 0 0] ------- [0:0 5:0 32 0] [61] 0 0
r 1.061000000 _0_ RTR  --- 61 cbr 210 [0 0 0 0] ------- [0:0 5:0 32 0] [61] 0 0
s 1.062000000 _0_ AGT  --- 62 cbr 210 [0 0 0 0] ------- [0:0 5:0 32 0] [62] 0 0
r 1.062000000 _0_ RTR  --- 62 cbr 210 [0 0 0 0] ------- [0:0 5:0 32 0] [62] 0 0
s 1.063000000 _0_ AGT  --- 63 cbr 210 [0 0 0 0] ------- [0:0 5:0 32 0] [63] 0 0
r 1.063000000 _0_ RTR  --- 63 cbr 210 [0 0 0 0] ------- [0:0 5:0 32 0] [63] 0 0
s 1.064000000 _0_ AGT  --- 64 cbr 210 [0 0 0 0] ------- [0:0 5:0 32 0] [64] 0 0
r 1.064000000 _0_ RTR  --- 64 cbr 210 [0 0 0 0] ------- [0:0 5:0 32 0] [64] 0 0
D 1.064000000 _0_ RTR  IFQ 0 cbr 230 [0 0 0 0] ------- [0:0 5:0 30 0] [0] 0 0
s 1.065000000 _0_ AGT  --- 65 cbr 210 [0 0 0 0] ------- [0:0 5:0 32 0] [65] 0 0
r 1.065000000 _0_ RTR  --- 65 cbr 210 [0 0 0 0] ------- [0:0 5:0 32 0] [65] 0 0
D 1.065000000 _0_ RTR  IFQ 1 cbr 230 [0 0 0 0] ------- [0:0 5:0 30 0] [1] 0 0
s 1.066000000 _0_ AGT  --- 66 cbr 210 [0 0 0 0] ------- [0:0 5:0 32 0] [66] 0 0
r 1.066000000 _0_ RTR  --- 66 cbr 210 [0 0 0 0] ------- [0:0 5:0 32 0] [66] 0 0
D 1.066000000 _0_ RTR  IFQ 2 cbr 230 [0 0 0 0] ------- [0:0 5:0 30 0] [2] 0 0
s 1.067000000 _0_ AGT  --- 67 cbr 210 [0 0 0 0] ------- [0:0 5:0 32 0] [67] 0 0
r 1.067000000 _0_ RTR  --- 67 cbr 210 [0 0 0 0] ------- [0:0 5:0 32 0] [67] 0 0
D 1.067000000 _0_ RTR  IFQ 3 cbr 230 [0 0 0 0] ------- [0:0 5:0 30 0] [3] 0 0
s 1.068000000 _0_ AGT  --- 68 cbr 210 [0 0 0 0] ------- [0:0 5:0 32 0] [68] 0 0
r 1.068000000 _0_ RTR  --- 68 cbr 210 [0 0 0 0] ------- [0:0 5:0 32 0] [68] 0 0
D 1.068000000 _0_ RTR  IFQ 4 cbr 230 [0 0 0 0] ------- [0:0 5:0 30 0] [4] 0 0
s 1.069000000 _0_ AGT  --- 69 cbr 210 [0 0 0 0] ------- [0:0 5:0 32 0] [69] 0 0
r 1.069000000 _0_ RTR  --- 69 cbr 210 [0 0 0 0] ------- [0:0 5:0 32 0] [69] 0 0
D 1.069000000 _0_ RTR  IFQ 5 cbr 230 [0 0 0 0] ------- [0:0 5:0 30 0] [5] 0 0
s 1.070000000 _0_ AGT  --- 70 cbr 210 [0 0 0 0] ------- [0:0 5:0 32 0] [70] 0 0
r 1.070000000 _0_ RTR  --- 70 cbr 210 [0 0 0 0] ------- [0:0 5:0 32 0] [70] 0 0
D 1.070000000 _0_ RTR  IFQ 6 cbr 230 [0 0 0 0] ------- [0:0 5:0 30 0] [6] 0 0
s 1.071000000 _0_ AGT  --- 71 cbr 210 [0 0 0 0] ------- [0:0 5:0 32 0] [71] 0 0
r 1.071000000 _0_ RTR  --- 71 cbr 210 [0 0 0 0] ------- [0:0 5:0 32 0] [71] 0 0
D 1.071000000 _0_ RTR  IFQ 7 cbr 230 [0 0 0 0] ------- [0:0 5:0 30 0] [7] 0 0
s 1.072000000 _0_ AGT  --- 72 cbr 210 [0 0 0 0] ------- [0:0 5:0 32 0] [72] 0 0
r 1.072000000 _0_ RTR  --- 72 cbr 210 [0 0 0 0] ------- [0:0 5:0 32 0] [72] 0 0
D 1.072000000 _0_ RTR  IFQ 8 cbr 230 [0 0 0 0] ------- [0:0 5:0 30 0] [8] 0 0
s 1.073000000 _0_ AGT  --- 73 cbr 210 [0 0 0 0] ------- [0:0 5:0 32 0] [73] 0 0
r 1.073000000 _0_ RTR  --- 73 cbr 210 [0 0 0 0] ------- [0:0 5:0 32 0] [73] 0 0
D 1.073000000 _0_ RTR  IFQ 9 cbr 230 [0 0 0 0] ------- [0:0 5:0 30 0] [9] 0 0
s 1.074000000 _0_ AGT  --- 74 cbr 210 [0 0 0 0] ------- [0:0 5:0 32 0] [74] 0 0
r 1.074000000 _0_ RTR  --- 74 cbr 210 [0 0 0 0] ------- [0:0 5:0 32 0] [74] 0 0
D 1.074000000 _0_ RTR  IFQ 10 cbr 230 [0 0 0 0] ------- [0:0 5:0 30 0] [10] 0 0
s 1.075000000 _0_ AGT  --- 75 cbr 210 [0 0 0 0] ------- [0:0 5:0 32 0] [75] 0 0
r 1.075000000 _0_ RTR  --- 75 cbr 210 [0 0 0 0] ------- [0:0 5:0 32 0] [75] 0 0
D 1.075000000 _0_ RTR  IFQ 11 cbr 230 [0 0 0 0] ------- [0:0 5:0 30 0] [11] 0 0
s 1.076000000 _0_ AGT  --- 76 cbr 210 [0 0 0 0] ------- [0:0 5:0 32 0] [76] 0 0
r 1.076000000 _0_ RTR  --- 76 cbr 210 [0 0 0 0] ------- [0:0 5:0 32 0] [76] 0 0
D 1.076000000 _0_ RTR  IFQ 12 cbr 230 [0 0 0 0] ------- [0:0 5:0 30 0] [12] 0 0
s 1.077000000 _0_ AGT  --- 77 cbr 210 [0 0 0 0] ------- [0:0 5:0 32 0] [77] 0 0
r 1.077000000 _0_ RTR  --- 77 cbr 210 [0 0 0 0] ------- [0:0 5:0 32 0] [77] 0 0
D 1.077000000 _0_ RTR  IFQ 13 cbr 230 [0 0 0 0] ------- [0:0 5:0 30 0] [13] 0 0
s 1.078000000 _0_ AGT  --- 78 cbr 210 [0 0 0 0] ------- [0:0 5:0 32 0] [78] 0 0
r 1.078000000 _0_ RTR  --- 78 cbr 210 [0 0 0 0] ------- [0:0 5:0 32 0] [78] 0 0
D 1.078000000 _0_ RTR  IFQ 14 cbr 230 [0 0 0 0] ------- [0:0 5:0 30 0] [14] 0 0
s 1.079000000 _0_ AGT  --- 79 cbr 210 [0 0 0 0] ------- [0:0 5:0 32 0] [79] 0 0
r 1.079000000 _0_ RTR  --- 79 cbr 210 [0 0 0 0] ------- [0:0 5:0 32 0] [79] 0 0
D 1.079000000 _0_ RTR  IFQ 15 cbr 230 [0 0 0 0] ------- [0:0 5:0 30 0] [15] 0 0
s 1.080000000 _0_ AGT  --- 80 cbr 210 [0 0 0 0] ------- [0:0 5:0 32 0] [80] 0 0
r 1.080000000 _0_ RTR  --- 80 cbr 210 [0 0 0 0] ------- [0:0 5:0 32 0] [80] 0 0
D 1.080000000 _0_ RTR  IFQ 16 cbr 230 [0 0 0 0] ------- [0:0 5:0 30 0] [16] 0 0
s 1.081000000 _0_ AGT  --- 81 cbr 210 [0 0 0 0] ------- [0:0 5:0 32 0] [81] 0 0
r 1.081000000 _0_ RTR  --- 81 cbr 210 [0 0 0 0] ------- [0:0 5:0 32 0] [81] 0 0
D 1.081000000 _0_ RTR  IFQ 17 cbr 230 [0 0 0 0] ------- [0:0 5:0 30 0] [17] 0 0
s 1.082000000 _0_ AGT  --- 82 cbr 210 [0 0 0 0] ------- [0:0 5:0 32 0] [82] 0 0
r 1.082000000 _0_ RTR  --- 82 cbr 210 [0 0 0 0] ------- [0:0 5:0 32 0] [82] 0 0
D 1.082000000 _0_ RTR  IFQ 18 cbr 230 [0 0 0 0] ------- [0:0 5:0 30 0] [18] 0 0
s 1.083000000 _0_ AGT  --- 83 cbr 210 [0 0 0 0] ------- [0:0 5:0 32 0] [83] 0 0
r 1.083000000 _0_ RTR  --- 83 cbr 210 [0 0 0 0] ------- [0:0 5:0 32 0] [83] 0 0
D 1.083000000 _0_ RTR  IFQ 19 cbr 230 [0 0 0 0] ------- [0:0 5:0 30 0] [19] 0 0
s 1.084000000 _0_ AGT  --- 84 cbr 210 [0 0 0 0] ------- [0:0 5:0 32 0] [84] 0 0
r 1.084000000 _0_ RTR  --- 84 cbr 210 [0 0 0 0] ------- [0:0 5:0 32 0] [84] 0 0
D 1.084000000 _0_ RTR  IFQ 20 cbr 230 [0 0 0 0] ------- [0:0 5:0 30 0] [20] 0 0
s 1.085000000 _0_ AGT  --- 85 cbr 210 [0 0 0 0] ------- [0:0 5:0 32 0] [85] 0 0
r 1.085000000 _0_ RTR  --- 85 cbr 210 [0 0 0 0] ------- [0:0 5:0 32 0] [85] 0 0
D 1.085000000 _0_ RTR  IFQ 21 cbr 230 [0 0 0 0] ------- [0:0 5:0 30 0] [21] 0 0
s 1.086000000 _0_ AGT  --- 86 cbr 210 [0 0 0 0] ------- [0:0 5:0 32 0] [86] 0 0
r 1.086000000 _0_ RTR  --- 86 cbr 210 [0 0 0 0] ------- [0:0 5:0 32 0] [86] 0 0
D 1.086000000 _0_ RTR  IFQ 22 cbr 230 [0 0 0 0] ------- [0:0 5:0 30 0] [22] 0 0
s 1.087000000 _0_ AGT  --- 87 cbr 210 [0 0 0 0] ------- [0:0 5:0 32 0] [87] 0 0
r 1.087000000 _0_ RTR  --- 87 cbr 210 [0 0 0 0] ------- [0:0 5:0 32 0] [87] 0 0
D 1.087000000 _0_ RTR  IFQ 23 cbr 230 [0 0 0 0] ------- [0:0 5:0 30 0] [23] 0 0
s 1.088000000 _0_ AGT  --- 88 cbr 210 [0 0 0 0] ------- [0:0 5:0 32 0] [88] 0 0
r 1.088000000 _0_ RTR  --- 88 cbr 210 [0 0 0 0] ------- [0:0 5:0 32 0] [88] 0 0
D 1.088000000 _0_ RTR  IFQ 24 cbr 230 [0 0 0 0] ------- [0:0 5:0 30 0] [24] 0 0
s 1.089000000 _0_ AGT  --- 89 cbr 210 [0 0 0 0] ------- [0:0 5:0 32 0] [89] 0 0
r 1.089000000 _0_ RTR  --- 89 cbr 210 [0 0 0 0] ------- [0:0 5:0 32 0] [89] 0 0
D 1.089000000 _0_ RTR  IFQ 25 cbr 230 [0 0 0 0] ------- [0:0 5:0 30 0] [25] 0 0
s 1.090000000 _0_ AGT  --- 90 cbr 210 [0 0 0 0] ------- [0:0 5:0 32 0] [90] 0 0
r 1.090000000 _0_ RTR  --- 90 cbr 210 [0 0 0 0] ------- [0:0 5:0 32 0] [90] 0 0
D 1.090000000 _0_ RTR  IFQ 26 cbr 230 [0 0 0 0] ------- [0:0 5:0 30 0] [26] 0 0
s 1.091000000 _0_ AGT  --- 91 cbr 210 [0 0 0 0] ------- [0:0 5:0 32 0] [91] 0 0
r 1.091000000 _0_ RTR  --- 91 cbr 210 [0 0 0 0] ------- [0:0 5:0 32 0] [91] 0 0
D 1.091000000 _0_ RTR  IFQ 27 cbr 230 [0 0 0 0] ------- [0:0 5:0 30 0] [27] 0 0
s 1.092000000 _0_ AGT  --- 92 cbr 210 [0 0 0 0] ------- [0:0 5:0 32 0] [92] 0 0
r 1.092000000 _0_ RTR  --- 92 cbr 210 [0 0 0 0] ------- [0:0 5:0 32 0] [92] 0 0
D 1.092000000 _0_ RTR  IFQ 28 cbr 230 [0 0 0 0] ------- [0:0 5:0 30 0] [28] 0 0
s 1.093000000 _0_ AGT  --- 93 cbr 210 [0 0 0 0] ------- [0:0 5:0 32 0] [93] 0 0
r 1.093000000 _0_ RTR  --- 93 cbr 210 [0 0 0 0] ------- [0:0 5:0 32 0] [93] 0 0
D 1.093000000 _0_ RTR  IFQ 29 cbr 230 [0 0 0 0] ------- [0:0 5:0 30 0] [29] 0 0
s 1.094000000 _0_ AGT  --- 94 cbr 210 [0 0 0 0] ------- [0:0 5:0 32 0] [94] 0 0
r 1.094000000 _0_ RTR  --- 94 cbr 210 [0 0 0 0] ------- [0:0 5:0 32 0] [94] 0 0
D 1.094000000 _0_ RTR  IFQ 30 cbr 230 [0 0 0 0] ------- [0:0 5:0 30 0] [30] 0 0
s 1.095000000 _0_ AGT  --- 95 cbr 210 [0 0 0 0] ------- [0:0 5:0 32 0] [95] 0 0
r 1.095000000 _0_ RTR  --- 95 cbr 210 [0 0 0 0] ------- [0:0 5:0 32 0] [95] 0 0
D 1.095000000 _0_ RTR  IFQ 31 cbr 230 [0 0 0 0] ------- [0:0 5:0 30 0] [31] 0 0
s 1.096000000 _0_ AGT  --- 96 cbr 210 [0 0 0 0] ------- [0:0 5:0 32 0] [96] 0 0
r 1.096000000 _0_ RTR  --- 96 cbr 210 [0 0 0 0] ------- [0:0 5:0 32 0] [96] 0 0
D 1.096000000 _0_ RTR  IFQ 32 cbr 230 [0 0 0 0] ------- [0:0 5:0 30 0] [32] 0 0
s 1.097000000 _0_ AGT  --- 97 cbr 210 [0 0 0 0] ------- [0:0 5:0 32 0] [97] 0 0
r 1.097000000 _0_ RTR  --- 97 cbr 210 [0 0 0 0] ------- [0:0 5:0 32 0] [97] 0 0
D 1.097000000 _0_ RTR  IFQ 33 cbr 230 [0 0 0 0] ------- [0:0 5:0 30 0] [33] 0 0
s 1.098000000 _0_ AGT  --- 98 cbr 210 [0 0 0 0] ------- [0:0 5:0 32 0] [98] 0 0
r 1.098000000 _0_ RTR  --- 98 cbr 210 [0 0 0 0] ------- [0:0 5:0 32 0] [98] 0 0
D 1.098000000 _0_ RTR  IFQ 34 cbr 230 [0 0 0 0] ------- [0:0 5:0 30 0] [34] 0 0
s 1.099000000 _0_ AGT  --- 99 cbr 210 [0 0 0 0] ------- [0:0 5:0 32 0] [99] 0 0
r 1.099000000 _0_ RTR  --- 99 cbr 210 [0 0 0 0] ------- [0:0 5:0 32 0] [99] 0 0
D 1.099000000 _0_ RTR  IFQ 35 cbr 230 [0 0 0 0] ------- [0:0 5:0 30 0] [35] 0 0
s 1.100000000 _0_ AGT  --- 100 cbr 210 [0 0 0 0] ------- [0:0 5:0 32 0] [100] 0 0
r 1.100000000 _0_ RTR  --- 100 cbr 210 [0 0 0 0] ------- [0:0 5:0 32 0] [100] 0 0
D 1.100000000 _0_ RTR  IFQ 36 cbr 230 [0 0 0 0] ------- [0:0 5:0 30 0] [36] 0 0
s 1.101000000 _0_ AGT  --- 101 cbr 210 [0 0 0 0] ------- [0:0 5:0 32 0] [101] 0 0
r 1.101000000 _0_ RTR  --- 101 cbr 210 [0 0 0 0] ------- [0:0 5:0 32 0] [101] 0 0
D 1.101000000 _0_ RTR  IFQ 37 cbr 230 [0 0 0 0] ------- [0:0 5:0 30 0] [37] 0 0
s 1.102000000 _0_ AGT  --- 102 cbr 210 [0 0 0 0] ------- [0:0 5:0 32 0] [102] 0 0
r 1.102000000 _0_ RTR  --- 102 cbr 210 [0 0 0 0] ------- [0:0 5:0 32 0] [102] 0 0
D 1.102000000 _0_ RTR  IFQ 38 cbr 230 [0 0 0 0] ------- [0:0 5:0 30 0] [38] 0 0
s 1.103000000 _0_ AGT  --- 103 cbr 210 [0 0 0 0] ------- [0:0 5:0 32 0] [103] 0 0
r 1.103000000 _0_ RTR  --- 103 cbr 210 [0 0 0 0] ------- [0:0 5:0 32 0] [103] 0 0
D 1.103000000 _0_ RTR  IFQ 39 cbr 230 [0 0 0 0] ------- [0:0 5:0 30 0] [39] 0 0
s 1.104000000 _0_ AGT  --- 104 cbr 210 [0 0 0 0] ------- [0:0 5:0 32 0] [104] 0 0
r 1.104000000 _0_ RTR  --- 104 cbr 210 [0 0 0 0] ------- [0:0 5:0 32 0] [104] 0 0
D 1.104000000 _0_ RTR  IFQ 40 cbr 230 [0 0 0 0] ------- [0:0 5:0 30 0] [40] 0 0
s 1.105000000 _0_ AGT  --- 105 cbr 210 [0 0 0 0] ------- [0:0 5:0 32 0] [105] 0 0
r 1.105000000 _0_ RTR  --- 105 cbr 210 [0 0 0 0] ------- [0:0 5:0 32 0] [105] 0 0
D 1.105000000 _0_ RTR  IFQ 41 cbr 230 [0 0 0 0] ------- [0:0 5:0 30 0] [41] 0 0
s 1.106000000 _0_ AGT  --- 106 cbr 210 [0 0 0 0] ------- [0:0 5:0 32 0] [106] 0 0
r 1.106000000 _0_ RTR  --- 106 cbr 210 [0 0 0 0] ------- [0:0 5:0 32 0] [106] 0 0
D 1.106000000 _0_ RTR  IFQ 42 cbr 230 [0 0 0 0] ------- [0:0 5:0 30 0] [42] 0 0
s 1.107000000 _0_ AGT  --- 107 cbr 210 [0 0 0 0] ------- [0:0 5:0 32 0] [107] 0 0
r 1.107000000 _0_ RTR  --- 107 cbr 210 [0 0 0 0] ------- [0:0 5:0 32 0] [107] 0 0
D 1.107000000 _0_ RTR  IFQ 43 cbr 230 [0 0 0 0] ------- [0:0 5:0 30 0] [43] 0 0
s 1.108000000 _0_ AGT  --- 108 cbr 210 [0 0 0 0] ------- [0:0 5:0 32 0] [108] 0 0
r 1.108000000 _0_ RTR  --- 108 cbr 210 [0 0 0 0] ------- [0:0 5:0 32 0] [108] 0 0
D 1.108000000 _0_ RTR  IFQ 44 cbr 230 [0 0 0 0] ------- [0:0 5:0 30 0] [44] 0 0
s 1.109000000 _0_ AGT  --- 109 cbr 210 [0 0 0 0] ------- [0:0 5:0 32 0] [109] 0 0
r 1.109000000 _0_ RTR  --- 109 cbr 210 [0 0 0 0] ------- [0:0 5:0 32 0] [109] 0 0
D 1.109000000 _0_ RTR  IFQ 45 cbr 230 [0 0 0 0] ------- [0:0 5:0 30 0] [45] 0 0
s 1.110000000 _0_ AGT  --- 110 cbr 210 [0 0 0 0] ------- [0:0 5:0 32 0] [110] 0 0
r 1.110000000 _0_ RTR  --- 110 cbr 210 [0 0 0 0] ------- [0:0 5:0 32 0] [110] 0 0
D 1.110000000 _0_ RTR  IFQ 46 cbr 230 [0 0 0 0] ------- [0:0 5:0 30 0] [46] 0 0
s 1.111000000 _0_ AGT  --- 111 cbr 210 [0 0 0 0] ------- [0:0 5:0 32 0] [111] 0 0
r 1.111000000 _0_ RTR  --- 111 cbr 210 [0 0 0 0] ------- [0:0 5:0 32 0] [111] 0 0
D 1.111000000 _0_ RTR  IFQ 47 cbr 230 [0 0 0 0] ------- [0:0 5:0 30 0] [47] 0 0
s 1.112000000 _0_ AGT  --- 112 cbr 210 [0 0 0 0] ------- [0:0 5:0 32 0] [112] 0 0
r 1.112000000 _0_ RTR  --- 112 cbr 210 [0 0 0 0] ------- [0:0 5:0 32 0] [112] 0 0
D 1.112000000 _0_ RTR  IFQ 48 cbr 230 [0 0 0 0] ------- [0:0 5:0 30 0] [48] 0 0
s 1.113000000 _0_ AGT  --- 113 cbr 210 [0 0 0 0] ------- [0:0 5:0 32 0] [113] 0 0
r 1.113000000 _0_ RTR  --- 113 cbr 210 [0 0 0 0] ------- [0:0 5:0 32 0] [113] 0 0
D 1.113000000 _0_ RTR  IFQ 49 cbr 230 [0 0 0 0] ------- [0:0 5:0 30 0] [49] 0 0
s 1.114000000 _0_ AGT  --- 114 cbr 210 [0 0 0 0] ------- [0:0 5:0 32 0] [114] 0 0
r 1.114000000 _0_ RTR  --- 114 cbr 210 [0 0 0 0] ------- [0:0 5:0 32 0] [114] 0 0
D 1.114000000 _0_ RTR  IFQ 50 cbr 230 [0 0 0 0] ------- [0:0 5:0 30 0] [50] 0 0
s 1.115000000 _0_ AGT  --- 115 cbr 210 [0 0 0 0] ------- [0:0 5:0 32 0] [115] 0 0
r 1.115000000 _0_ RTR  --- 115 cbr 210 [0 0 0 0] ------- [0:0 5:0 32 0] [115] 0 0
D 1.115000000 _0_ RTR  IFQ 51 cbr 230 [0 0 0 0] ------- [0:0 5:0 30 0] [51] 0 0
s 1.116000000 _0_ AGT  --- 116 cbr 210 [0 0 0 0] ------- [0:0 5:0 32 0] [116] 0 0
r 1.116000000 _0_ RTR  --- 116 cbr 210 [0 0 0 0] ------- [0:0 5:0 32 0] [116] 0 0
D 1.116000000 _0_ RTR  IFQ 52 cbr 230 [0 0 0 0] ------- [0:0 5:0 30 0] [52] 0 0
s 1.117000000 _0_ AGT  --- 117 cbr 210 [0 0 0 0] ------- [0:0 5:0 32 0] [117] 0 0
r 1.117000000 _0_ RTR  --- 117 cbr 210 [0 0 0 0] ------- [0:0 5:0 32 0] [117] 0 0
D 1.117000000 _0_ RTR  IFQ 53 cbr 230 [0 0 0 0] ------- [0:0 5:0 30 0] [53] 0 0
s 1.118000000 _0_ AGT  --- 118 cbr 210 [0 0 0 0] ------- [0:0 5:0 32 0] [118] 0 0
r 1.118000000 _0_ RTR  --- 118 cbr 210 [0 0 0 0] ------- [0:0 5:0 32 0] [118] 0 0
D 1.118000000 _0_ RTR  IFQ 54 cbr 230 [0 0 0 0] ------- [0:0 5:0 30 0] [54] 0 0
s 1.119000000 _0_ AGT  --- 119 cbr 210 [0 0 0 0] ------- [0:0 5:0 32 0] [119] 0 0
r 1.119000000 _0_ RTR  --- 119 cbr 210 [0 0 0 0] ------- [0:0 5:0 32 0] [119] 0 0
D 1.119000000 _0_ RTR  IFQ 55 cbr 230 [0 0 0 0] ------- [0:0 5:0 30 0] [55] 0 0
s 1.120000000 _0_ AGT  --- 120 cbr 210 [0 0 0 0] ------- [0:0 5:0 32 0] [120] 0 0
r 1.120000000 _0_ RTR  --- 120 cbr 210 [0 0 0 0] ------- [0:0 5:0 32 0] [120] 0 0
D 1.120000000 _0_ RTR  IFQ 56 cbr 230 [0 0 0 0] ------- [0:0 5:0 30 0] [56] 0 0
s 1.121000000 _0_ AGT  --- 121 cbr 210 [0 0 0 0] ------- [0:0 5:0 32 0] [121] 0 0
r 1.121000000 _0_ RTR  --- 121 cbr 210 [0 0 0 0] ------- [0:0 5:0 32 0] [121] 0 0
D 1.121000000 _0_ RTR  IFQ 57 cbr 230 [0 0 0 0] ------- [0:0 5:0 30 0] [57] 0 0
s 1.122000000 _0_ AGT  --- 122 cbr 210 [0 0 0 0] ------- [0:0 5:0 32 0] [122] 0 0
r 1.122000000 _0_ RTR  --- 122 cbr 210 [0 0 0 0] ------- [0:0 5:0 32 0] [122] 0 0
D 1.122000000 _0_ RTR  IFQ 58 cbr 230 [0 0 0 0] ------- [0:0 5:0 30 0] [58] 0 0
s 1.123000000 _0_ AGT  --- 123 cbr 210 [0 0 0 0] ------- [0:0 5:0 32 0] [123] 0 0
r 1.123000000 _0_ RTR  --- 123 cbr 210 [0 0 0 0] ------- [0:0 5:0 32 0] [123] 0 0
D 1.123000000 _0_ RTR  IFQ 59 cbr 230 [0 0 0 0] ------- [0:0 5:0 30 0] [59] 0 0
s 1.124000000 _0_ AGT  --- 124 cbr 210 [0 0 0 0] ------- [0:0 5:0 32 0] [124] 0 0
r 1.124000000 _0_ RTR  --- 124 cbr 210 [0 0 0 0] ------- [0:0 5:0 32 0] [124] 0 0
D 1.124000000 _0_ RTR  IFQ 60 cbr 230 [0 0 0 0] ------- [0:0 5:0 30 0] [60] 0 0
s 1.125000000 _0_ AGT  --- 125 cbr 210 [0 0 0 0] ------- [0:0 5:0 32 0] [125] 0 0
r 1.125000000 _0_ RTR  --- 125 cbr 210 [0 0 0 0] ------- [0:0 5:0 32 0] [125] 0 0
D 1.125000000 _0_ RTR  IFQ 61 cbr 230 [0 0 0 0] ------- [0:0 5:0 30 0] [61] 0 0
s 1.126000000 _0_ AGT  --- 126 cbr 210 [0 0 0 0] ------- [0:0 5:0 32 0] [126] 0 0
r 1.126000000 _0_ RTR  --- 126 cbr 210 [0 0 0 0] ------- [0:0 5:0 32 0] [126] 0 0
D 1.126000000 _0_ RTR  IFQ 62 cbr 230 [0 0 0 0] ------- [0:0 5:0 30 0] [62] 0 0
s 1.127000000 _0_ AGT  --- 127 cbr 210 [0 0 0 0] ------- [0:0 5:0 32 0] [127] 0 0
r 1.127000000 _0_ RTR  --- 127 cbr 210 [0 0 0 0] ------- [0:0 5:0 32 0] [127] 0 0
D 1.127000000 _0_ RTR  IFQ 63 cbr 230 [0 0 0 0] ------- [0:0 5:0 30 0] [63] 0 0
s 1.128000000 _0_ AGT  --- 128 cbr 210 [0 0 0 0] ------- [0:0 5:0 32 0] [128] 0 0
r 1.128000000 _0_ RTR  --- 128 cbr 210 [0 0 0 0] ------- [0:0 5:0 32 0] [128] 0 0
D 1.128000000 _0_ RTR  IFQ 64 cbr 230 [0 0 0 0] ------- [0:0 5:0 30 0] [64] 0 0
s 1.129000000 _0_ AGT  --- 129 cbr 210 [0 0 0 0] ------- [0:0 5:0 32 0] [129] 0 0
r 1.129000000 _0_ RTR  --- 129 cbr 210 [0 0 0 0] ------- [0:0 5:0 32 0] [129] 0 0
D 1.129000000 _0_ RTR  IFQ 65 cbr 230 [0 0 0 0] ------- [0:0 5:0 30 0] [65] 0 0
s 1.130000000 _0_ AGT  --- 130 cbr 210 [0 0 0 0] ------- [0:0 5:0 32 0] [130] 0 0
r 1.130000000 _0_ RTR  --- 130 cbr 210 [0 0 0 0] ------- [0:0 5:0 32 0] [130] 0 0
D 1.130000000 _0_ RTR  IFQ 66 cbr 230 [0 0 0 0] ------- [0:0 5:0 30 0] [66] 0 0
s 1.131000000 _0_ AGT  --- 131 cbr 210 [0 0 0 0] ------- [0:0 5:0 32 0] [131] 0 0
r 1.131000000 _0_ RTR  --- 131 cbr 210 [0 0 0 0] ------- [0:0 5:0 32 0] [131] 0 0
D 1.131000000 _0_ RTR  IFQ 67 cbr 230 [0 0 0 0] ------- [0:0 5:0 30 0] [67] 0 0
s 1.132000000 _0_ AGT  --- 132 cbr 210 [0 0 0 0] ------- [0:0 5:0 32 0] [132] 0 0
r 1.132000000 _0_ RTR  --- 132 cbr 210 [0 0 0 0] ------- [0:0 5:0 32 0] [132] 0 0
D 1.132000000 _0_ RTR  IFQ 68 cbr 230 [0 0 0 0] ------- [0:0 5:0 30 0] [68] 0 0
s 1.133000000 _0_ AGT  --- 133 cbr 210 [0 0 0 0] ------- [0:0 5:0 32 0] [133] 0 0
r 1.133000000 _0_ RTR  --- 133 cbr 210 [0 0 0 0] ------- [0:0 5:0 32 0] [133] 0 0
D 1.133000000 _0_ RTR  IFQ 69 cbr 230 [0 0 0 0] ------- [0:0 5:0 30 0] [69] 0 0
s 1.134000000 _0_ AGT  --- 134 cbr 210 [0 0 0 0] ------- [0:0 5:0 32 0] [134] 0 0
r 1.134000000 _0_ RTR  --- 134 cbr 210 [0 0 0 0] ------- [0:0 5:0 32 0] [134] 0 0
D 1.134000000 _0_ RTR  IFQ 70 cbr 230 [0 0 0 0] ------- [0:0 5:0 30 0] [70] 0 0
s 1.135000000 _0_ AGT  --- 135 cbr 210 [0 0 0 0] ------- [0:0 5:0 32 0] [135] 0 0
r 1.135000000 _0_ RTR  --- 135 cbr 210 [0 0 0 0] ------- [0:0 5:0 32 0] [135] 0 0
D 1.135000000 _0_ RTR  IFQ 71 cbr 230 [0 0 0 0] ------- [0:0 5:0 30 0] [71] 0 0
s 1.136000000 _0_ AGT  --- 136 cbr 210 [0 0 0 0] ------- [0:0 5:0 32 0] [136] 0 0
r 1.136000000 _0_ RTR  --- 136 cbr 210 [0 0 0 0] ------- [0:0 5:0 32 0] [136] 0 0
D 1.136000000 _0_ RTR  IFQ 72 cbr 230 [0 0 0 0] ------- [0:0 5:0 30 0] [72] 0 0
s 1.137000000 _0_ AGT  --- 137 cbr 210 [0 0 0 0] ------- [0:0 5:0 32 0] [137] 0 0
r 1.137000000 _0_ RTR  --- 137 cbr 210 [0 0 0 0] ------- [0:0 5:0 32 0] [137] 0 0
D 1.137000000 _0_ RTR  IFQ 73 cbr 230 [0 0 0 0] ------- [0:0 5:0 30 0] [73] 0 0
s 1.138000000 _0_ AGT  --- 138 cbr 210 [0 0 0 0] ------- [0:0 5:0 32 0] [138] 0 0
r 1.138000000 _0_ RTR  --- 138 cbr 210 [0 0 0 0] ------- [0:0 5:0 32 0] [138] 0 0
D 1.138000000 _0_ RTR  IFQ 74 cbr 230 [0 0 0 0] ------- [0:0 5:0 30 0] [74] 0 0
s 1.139000000 _0_ AGT  --- 139 cbr 210 [0 0 0 0] ------- [0:0 5:0 32 0] [139] 0 0
r 1.139000000 _0_ RTR  --- 139 cbr 210 [0 0 0 0] ------- [0:0 5:0 32 0] [139] 0 0
D 1.139000000 _0_ RTR  IFQ 75 cbr 230 [0 0 0 0] ------- [0:0 5:0 30 0] [75] 0 0
s 1.140000000 _0_ AGT  --- 140 cbr 210 [0 0 0 0] ------- [0:0 5:0 32 0] [140] 0 0
r 1.140000000 _0_ RTR  --- 140 cbr 210 [0 0 0 0] ------- [0:0 5:0 32 0] [140] 0 0
D 1.140000000 _0_ RTR  IFQ 76 cbr 230 [0 0 0 0] ------- [0:0 5:0 30 0] [76] 0 0
s 1.141000000 _0_ AGT  --- 141 cbr 210 [0 0 0 0] ------- [0:0 5:0 32 0] [141] 0 0