s 0.000000000 _0_ AGT  --- 0 cbr 1000 [0 0 0 0] ------- [0:0 18:0 32 0] [0] 0 0
r 0.000000000 _0_ RTR  --- 0 cbr 1000 [0 0 0 0] ------- [0:0 18:0 32 0] [0] 0 0
v 0 eval {set sim_annotation {MOBILE NODE MOVEMENTS}}
s 0.000000000 _0_ RTR  --- 0 AODV 48 [0 0 0 0] ------- [0:255 -1:255 30 0] [0x2 1 1 [18 0] [0 4]] (REQUEST)
s 0.000295000 _0_ MAC  --- 0 AODV 106 [0 ffffffff 0 800] ------- [0:255 -1:255 30 0] [0x2 1 1 [18 0] [0 4]] (REQUEST)
r 0.001143520 _12_ MAC  --- 0 AODV 48 [0 ffffffff 0 800] ------- [0:255 -1:255 30 0] [0x2 1 1 [18 0] [0 4]] (REQUEST)
r 0.001143527 _15_ MAC  --- 0 AODV 48 [0 ffffffff 0 800] ------- [0:255 -1:255 30 0] [0x2 1 1 [18 0] [0 4]] (REQUEST)
r 0.001143533 _18_ MAC  --- 0 AODV 48 [0 ffffffff 0 800] ------- [0:255 -1:255 30 0] [0x2 1 1 [18 0] [0 4]] (REQUEST)
r 0.001143555 _14_ MAC  --- 0 AODV 48 [0 ffffffff 0 800] ------- [0:255 -1:255 30 0] [0x2 1 1 [18 0] [0 4]] (REQUEST)
r 0.001143717 _17_ MAC  --- 0 AODV 48 [0 ffffffff 0 800] ------- [0:255 -1:255 30 0] [0x2 1 1 [18 0] [0 4]] (REQUEST)
r 0.001143737 _9_ MAC  --- 0 AODV 48 [0 ffffffff 0 800] ------- [0:255 -1:255 30 0] [0x2 1 1 [18 0] [0 4]] (REQUEST)
r 0.001143762 _19_ MAC  --- 0 AODV 48 [0 ffffffff 0 800] ------- [0:255 -1:255 30 0] [0x2 1 1 [18 0] [0 4]] (REQUEST)
r 0.001143786 _8_ MAC  --- 0 AODV 48 [0 ffffffff 0 800] ------- [0:255 -1:255 30 0] [0x2 1 1 [18 0] [0 4]] (REQUEST)
r 0.001143797 _7_ MAC  --- 0 AODV 48 [0 ffffffff 0 800] ------- [0:255 -1:255 30 0] [0x2 1 1 [18 0] [0 4]] (REQUEST)
r 0.001143865 _22_ MAC  --- 0 AODV 48 [0 ffffffff 0 800] ------- [0:255 -1:255 30 0] [0x2 1 1 [18 0] [0 4]] (REQUEST)
r 0.001143927 _16_ MAC  --- 0 AODV 48 [0 ffffffff 0 800] ------- [0:255 -1:255 30 0] [0x2 1 1 [18 0] [0 4]] (REQUEST)
r 0.001144047 _4_ MAC  --- 0 AODV 48 [0 ffffffff 0 800] ------- [0:255 -1:255 30 0] [0x2 1 1 [18 0] [0 4]] (REQUEST)
r 0.001144112 _10_ MAC  --- 0 AODV 48 [0 ffffffff 0 800] ------- [0:255 -1:255 30 0] [0x2 1 1 [18 0] [0 4]] (REQUEST)
r 0.001144128 _11_ MAC  --- 0 AODV 48 [0 ffffffff 0 800] ------- [0:255 -1:255 30 0] [0x2 1 1 [18 0] [0 4]] (REQUEST)
r 0.001144182 _13_ MAC  --- 0 AODV 48 [0 ffffffff 0 800] ------- [0:255 -1:255 30 0] [0x2 1 1 [18 0] [0 4]] (REQUEST)
r 0.001144207 _6_ MAC  --- 0 AODV 48 [0 ffffffff 0 800] ------- [0:255 -1:255 30 0] [0x2 1 1 [18 0] [0 4]] (REQUEST)
r 0.001144278 _5_ MAC  --- 0 AODV 48 [0 ffffffff 0 800] ------- [0:255 -1:255 30 0] [0x2 1 1 [18 0] [0 4]] (REQUEST)
r 0.001144330 _3_ MAC  --- 0 AODV 48 [0 ffffffff 0 800] ------- [0:255 -1:255 30 0] [0x2 1 1 [18 0] [0 4]] (REQUEST)
r 0.001144435 _20_ MAC  --- 0 AODV 48 [0 ffffffff 0 800] ------- [0:255 -1:255 30 0] [0x2 1 1 [18 0] [0 4]] (REQUEST)
r 0.001144491 _21_ MAC  --- 0 AODV 48 [0 ffffffff 0 800] ------- [0:255 -1:255 30 0] [0x2 1 1 [18 0] [0 4]] (REQUEST)
r 0.001144591 _2_ MAC  --- 0 AODV 48 [0 ffffffff 0 800] ------- [0:255 -1:255 30 0] [0x2 1 1 [18 0] [0 4]] (REQUEST)
r 0.001146110 _1_ MAC  --- 0 AODV 48 [0 ffffffff 0 800] ------- [0:255 -1:255 30 0] [0x2 1 1 [18 0] [0 4]] (REQUEST)
r 0.001168520 _12_ RTR  --- 0 AODV 48 [0 ffffffff 0 800] ------- [0:255 -1:255 30 0] [0x2 1 1 [18 0] [0 4]] (REQUEST)
r 0.001168527 _15_ RTR  --- 0 AODV 48 [0 ffffffff 0 800] ------- [0:255 -1:255 30 0] [0x2 1 1 [18 0] [0 4]] (REQUEST)
r 0.001168533 _18_ RTR  --- 0 AODV 48 [0 ffffffff 0 800] ------- [0:255 -1:255 30 0] [0x2 1 1 [18 0] [0 4]] (REQUEST)
s 0.001168533 _18_ RTR  --- 0 AODV 44 [0 0 0 0] ------- [18:255 0:255 30 0] [0x4 1 [18 4] 10.000000] (REPLY)
r 0.001168555 _14_ RTR  --- 0 AODV 48 [0 ffffffff 0 800] ------- [0:255 -1:255 30 0] [0x2 1 1 [18 0] [0 4]] (REQUEST)
r 0.001168717 _17_ RTR  --- 0 AODV 48 [0 ffffffff 0 800] ------- [0:255 -1:255 30 0] [0x2 1 1 [18 0] [0 4]] (REQUEST)
r 0.001168737 _9_ RTR  --- 0 AODV 48 [0 ffffffff 0 800] ------- [0:255 -1:255 30 0] [0x2 1 1 [18 0] [0 4]] (REQUEST)
r 0.001168762 _19_ RTR  --- 0 AODV 48 [0 ffffffff 0 800] ------- [0:255 -1:255 30 0] [0x2 1 1 [18 0] [0 4]] (REQUEST)
r 0.001168786 _8_ RTR  --- 0 AODV 48 [0 ffffffff 0 800] ------- [0:255 -1:255 30 0] [0x2 1 1 [18 0] [0 4]] (REQUEST)
r 0.001168797 _7_ RTR  --- 0 AODV 48 [0 ffffffff 0 800] ------- [0:255 -1:255 30 0] [0x2 1 1 [18 0] [0 4]] (REQUEST)
r 0.001168865 _22_ RTR  --- 0 AODV 48 [0 ffffffff 0 800] ------- [0:255 -1:255 30 0] [0x2 1 1 [18 0] [0 4]] (REQUEST)
r 0.001168927 _16_ RTR  --- 0 AODV 48 [0 ffffffff 0 800] ------- [0:255 -1:255 30 0] [0x2 1 1 [18 0] [0 4]] (REQUEST)
r 0.001169047 _4_ RTR  --- 0 AODV 48 [0 ffffffff 0 800] ------- [0:255 -1:255 30 0] [0x2 1 1 [18 0] [0 4]] (REQUEST)
r 0.001169112 _10_ RTR  --- 0 AODV 48 [0 ffffffff 0 800] ------- [0:255 -1:255 30 0] [0x2 1 1 [18 0] [0 4]] (REQUEST)
r 0.001169128 _11_ RTR  --- 0 AODV 48 [0 ffffffff 0 800] ------- [0:255 -1:255 30 0] [0x2 1 1 [18 0] [0 4]] (REQUEST)
r 0.001169182 _13_ RTR  --- 0 AODV 48 [0 ffffffff 0 800] ------- [0:255 -1:255 30 0] [0x2 1 1 [18 0] [0 4]] (REQUEST)
r 0.001169207 _6_ RTR  --- 0 AODV 48 [0 ffffffff 0 800] ------- [0:255 -1:255 30 0] [0x2 1 1 [18 0] [0 4]] (REQUEST)
r 0.001169278 _5_ RTR  --- 0 AODV 48 [0 ffffffff 0 800] ------- [0:255 -1:255 30 0] [0x2 1 1 [18 0] [0 4]] (REQUEST)
r 0.001169330 _3_ RTR  --- 0 AODV 48 [0 ffffffff 0 800] ------- [0:255 -1:255 30 0] [0x2 1 1 [18 0] [0 4]] (REQUEST)
r 0.001169435 _20_ RTR  --- 0 AODV 48 [0 ffffffff 0 800] ------- [0:255 -1:255 30 0] [0x2 1 1 [18 0] [0 4]] (REQUEST)
r 0.001169491 _21_ RTR  --- 0 AODV 48 [0 ffffffff 0 800] ------- [0:255 -1:255 30 0] [0x2 1 1 [18 0] [0 4]] (REQUEST)
r 0.001169591 _2_ RTR  --- 0 AODV 48 [0 ffffffff 0 800] ------- [0:255 -1:255 30 0] [0x2 1 1 [18 0] [0 4]] (REQUEST)
r 0.001171110 _1_ RTR  --- 0 AODV 48 [0 ffffffff 0 800] ------- [0:255 -1:255 30 0] [0x2 1 1 [18 0] [0 4]] (REQUEST)
s 0.001444645 _9_ RTR  --- 0 AODV 48 [0 ffffffff 0 800] ------- [9:255 -1:255 29 0] [0x2 2 1 [18 0] [0 4]] (REQUEST)
s 0.001783533 _18_ MAC  --- 0 ARP 86 [0 ffffffff 12 806] ------- [REQUEST 18/18 0/0]
s 0.001996025 _20_ RTR  --- 0 AODV 48 [0 ffffffff 0 800] ------- [20:255 -1:255 29 0] [0x2 2 1 [18 0] [0 4]] (REQUEST)
s 0.002185374 _3_ RTR  --- 0 AODV 48 [0 ffffffff 0 800] ------- [3:255 -1:255 29 0] [0x2 2 1 [18 0] [0 4]] (REQUEST)
r 0.002471827 _17_ MAC  --- 0 ARP 28 [0 ffffffff 12 806] ------- [REQUEST 18/18 0/0]
r 0.002472066 _0_ MAC  --- 0 ARP 28 [0 ffffffff 12 806] ------- [REQUEST 18/18 0/0]
r 0.002472097 _15_ MAC  --- 0 ARP 28 [0 ffffffff 12 806] ------- [REQUEST 18/18 0/0]
r 0.002472264 _16_ MAC  --- 0 ARP 28 [0 ffffffff 12 806] ------- [REQUEST 18/18 0/0]
r 0.002472289 _22_ MAC  --- 0 ARP 28 [0 ffffffff 12 806] ------- [REQUEST 18/18 0/0]
r 0.002472471 _19_ MAC  --- 0 ARP 28 [0 ffffffff 12 806] ------- [REQUEST 18/18 0/0]
r 0.002472491 _12_ MAC  --- 0 ARP 28 [0 ffffffff 12 806] ------- [REQUEST 18/18 0/0]
r 0.002472507 _14_ MAC  --- 0 ARP 28 [0 ffffffff 12 806] ------- [REQUEST 18/18 0/0]
r 0.002472522 _9_ MAC  --- 0 ARP 28 [0 ffffffff 12 806] ------- [REQUEST 18/18 0/0]
r 0.002472731 _10_ MAC  --- 0 ARP 28 [0 ffffffff 12 806] ------- [REQUEST 18/18 0/0]
r 0.002472846 _7_ MAC  --- 0 ARP 28 [0 ffffffff 12 806] ------- [REQUEST 18/18 0/0]
r 0.002472849 _8_ MAC  --- 0 ARP 28 [0 ffffffff 12 806] ------- [REQUEST 18/18 0/0]
r 0.002472984 _4_ MAC  --- 0 ARP 28 [0 ffffffff 12 806] ------- [REQUEST 18/18 0/0]
r 0.002473003 _21_ MAC  --- 0 ARP 28 [0 ffffffff 12 806] ------- [REQUEST 18/18 0/0]
r 0.002473076 _13_ MAC  --- 0 ARP 28 [0 ffffffff 12 806] ------- [REQUEST 18/18 0/0]
r 0.002473146 _11_ MAC  --- 0 ARP 28 [0 ffffffff 12 806] ------- [REQUEST 18/18 0/0]
r 0.002473156 _20_ MAC  --- 0 ARP 28 [0 ffffffff 12 806] ------- [REQUEST 18/18 0/0]
r 0.002473162 _3_ MAC  --- 0 ARP 28 [0 ffffffff 12 806] ------- [REQUEST 18/18 0/0]
r 0.002473272 _6_ MAC  --- 0 ARP 28 [0 ffffffff 12 806] ------- [REQUEST 18/18 0/0]
r 0.002473306 _5_ MAC  --- 0 ARP 28 [0 ffffffff 12 806] ------- [REQUEST 18/18 0/0]
r 0.002473539 _2_ MAC  --- 0 ARP 28 [0 ffffffff 12 806] ------- [REQUEST 18/18 0/0]
r 0.002474297 _1_ MAC  --- 0 ARP 28 [0 ffffffff 12 806] ------- [REQUEST 18/18 0/0]
s 0.002563460 _8_ RTR  --- 0 AODV 48 [0 ffffffff 0 800] ------- [8:255 -1:255 29 0] [0x2 2 1 [18 0] [0 4]] (REQUEST)
s 0.002602522 _9_ MAC  --- 0 AODV 106 [0 ffffffff 9 800] ------- [9:255 -1:255 29 0] [0x2 2 1 [18 0] [0 4]] (REQUEST)
s 0.003282859 _21_ RTR  --- 0 AODV 48 [0 ffffffff 0 800] ------- [21:255 -1:255 29 0] [0x2 2 1 [18 0] [0 4]] (REQUEST)
r 0.003450863 _14_ MAC  --- 0 AODV 48 [0 ffffffff 9 800] ------- [9:255 -1:255 29 0] [0x2 2 1 [18 0] [0 4]] (REQUEST)
r 0.003450967 _10_ MAC  --- 0 AODV 48 [0 ffffffff 9 800] ------- [9:255 -1:255 29 0] [0x2 2 1 [18 0] [0 4]] (REQUEST)
r 0.003450968 _15_ MAC  --- 0 AODV 48 [0 ffffffff 9 800] ------- [9:255 -1:255 29 0] [0x2 2 1 [18 0] [0 4]] (REQUEST)
r 0.003451067 _4_ MAC  --- 0 AODV 48 [0 ffffffff 9 800] ------- [9:255 -1:255 29 0] [0x2 2 1 [18 0] [0 4]] (REQUEST)
r 0.003451162 _3_ MAC  --- 0 AODV 48 [0 ffffffff 9 800] ------- [9:255 -1:255 29 0] [0x2 2 1 [18 0] [0 4]] (REQUEST)
r 0.003451234 _16_ MAC  --- 0 AODV 48 [0 ffffffff 9 800] ------- [9:255 -1:255 29 0] [0x2 2 1 [18 0] [0 4]] (REQUEST)
r 0.003451260 _0_ MAC  --- 0 AODV 48 [0 ffffffff 9 800] ------- [9:255 -1:255 29 0] [0x2 2 1 [18 0] [0 4]] (REQUEST)
r 0.003451293 _7_ MAC  --- 0 AODV 48 [0 ffffffff 9 800] ------- [9:255 -1:255 29 0] [0x2 2 1 [18 0] [0 4]] (REQUEST)
r 0.003451454 _17_ MAC  --- 0 AODV 48 [0 ffffffff 9 800] ------- [9:255 -1:255 29 0] [0x2 2 1 [18 0] [0 4]] (REQUEST)
r 0.003451511 _18_ MAC  --- 0 AODV 48 [0 ffffffff 9 800] ------- [9:255 -1:255 29 0] [0x2 2 1 [18 0] [0 4]] (REQUEST)
r 0.003451547 _5_ MAC  --- 0 AODV 48 [0 ffffffff 9 800] ------- [9:255 -1:255 29 0] [0x2 2 1 [18 0] [0 4]] (REQUEST)
r 0.003451567 _8_ MAC  --- 0 AODV 48 [0 ffffffff 9 800] ------- [9:255 -1:255 29 0] [0x2 2 1 [18 0] [0 4]] (REQUEST)
r 0.003451591 _2_ MAC  --- 0 AODV 48 [0 ffffffff 9 800] ------- [9:255 -1:255 29 0] [0x2 2 1 [18 0] [0 4]] (REQUEST)
r 0.003451658 _12_ MAC  --- 0 AODV 48 [0 ffffffff 9 800] ------- [9:255 -1:255 29 0] [0x2 2 1 [18 0] [0 4]] (REQUEST)
r 0.003451758 _6_ MAC  --- 0 AODV 48 [0 ffffffff 9 800] ------- [9:255 -1:255 29 0] [0x2 2 1 [18 0] [0 4]] (REQUEST)
r 0.003452014 _19_ MAC  --- 0 AODV 48 [0 ffffffff 9 800] ------- [9:255 -1:255 29 0] [0x2 2 1 [18 0] [0 4]] (REQUEST)
r 0.003452054 _11_ MAC  --- 0 AODV 48 [0 ffffffff 9 800] ------- [9:255 -1:255 29 0] [0x2 2 1 [18 0] [0 4]] (REQUEST)
r 0.003452102 _22_ MAC  --- 0 AODV 48 [0 ffffffff 9 800] ------- [9:255 -1:255 29 0] [0x2 2 1 [18 0] [0 4]] (REQUEST)
r 0.003452304 _13_ MAC  --- 0 AODV 48 [0 ffffffff 9 800] ------- [9:255 -1:255 29 0] [0x2 2 1 [18 0] [0 4]] (REQUEST)
r 0.003452658 _20_ MAC  --- 0 AODV 48 [0 ffffffff 9 800] ------- [9:255 -1:255 29 0] [0x2 2 1 [18 0] [0 4]] (REQUEST)
r 0.003452751 _21_ MAC  --- 0 AODV 48 [0 ffffffff 9 800] ------- [9:255 -1:255 29 0] [0x2 2 1 [18 0] [0 4]] (REQUEST)
r 0.003454270 _1_ MAC  --- 0 AODV 48 [0 ffffffff 9 800] ------- [9:255 -1:255 29 0] [0x2 2 1 [18 0] [0 4]] (REQUEST)
r 0.003475863 _14_ RTR  --- 0 AODV 48 [0 ffffffff 9 800] ------- [9:255 -1:255 29 0] [0x2 2 1 [18 0] [0 4]] (REQUEST)
r 0.003475967 _10_ RTR  --- 0 AODV 48 [0 ffffffff 9 800] ------- [9:255 -1:255 29 0] [0x2 2 1 [18 0] [0 4]] (REQUEST)
r 0.003475968 _15_ RTR  --- 0 AODV 48 [0 ffffffff 9 800] ------- [9:255 -1:255 29 0] [0x2 2 1 [18 0] [0 4]] (REQUEST)
r 0.003476067 _4_ RTR  --- 0 AODV 48 [0 ffffffff 9 800] ------- [9:255 -1:255 29 0] [0x2 2 1 [18 0] [0 4]] (REQUEST)
r 0.003476162 _3_ RTR  --- 0 AODV 48 [0 ffffffff 9 800] ------- [9:255 -1:255 29 0] [0x2 2 1 [18 0] [0 4]] (REQUEST)
r 0.003476234 _16_ RTR  --- 0 AODV 48 [0 ffffffff 9 800] ------- [9:255 -1:255 29 0] [0x2 2 1 [18 0] [0 4]] (REQUEST)
r 0.003476260 _0_ RTR  --- 0 AODV 48 [0 ffffffff 9 800] ------- [9:255 -1:255 29 0] [0x2 2 1 [18 0] [0 4]] (REQUEST)
r 0.003476293 _7_ RTR  --- 0 AODV 48 [0 ffffffff 9 800] ------- [9:255 -1:255 29 0] [0x2 2 1 [18 0] [0 4]] (REQUEST)
r 0.003476454 _17_ RTR  --- 0 AODV 48 [0 ffffffff 9 800] ------- [9:255 -1:255 29 0] [0x2 2 1 [18 0] [0 4]] (REQUEST)
r 0.003476511 _18_ RTR  --- 0 AODV 48 [0 ffffffff 9 800] ------- [9:255 -1:255 29 0] [0x2 2 1 [18 0] [0 4]] (REQUEST)
r 0.003476547 _5_ RTR  --- 0 AODV 48 [0 ffffffff 9 800] ------- [9:255 -1:255 29 0] [0x2 2 1 [18 0] [0 4]] (REQUEST)
r 0.003476567 _8_ RTR  --- 0 AODV 48 [0 ffffffff 9 800] ------- [9:255 -1:255 29 0] [0x2 2 1 [18 0] [0 4]] (REQUEST)
r 0.003476591 _2_ RTR  --- 0 AODV 48 [0 ffffffff 9 800] ------- [9:255 -1:255 29 0] [0x2 2 1 [18 0] [0 4]] (REQUEST)
r 0.003476658 _12_ RTR  --- 0 AODV 48 [0 ffffffff 9 800] ------- [9:255 -1:255 29 0] [0x2 2 1 [18 0] [0 4]] (REQUEST)
r 0.003476758 _6_ RTR  --- 0 AODV 48 [0 ffffffff 9 800] ------- [9:255 -1:255 29 0] [0x2 2 1 [18 0] [0 4]] (REQUEST)
r 0.003477014 _19_ RTR  --- 0 AODV 48 [0 ffffffff 9 800] ------- [9:255 -1:255 29 0] [0x2 2 1 [18 0] [0 4]] (REQUEST)
r 0.003477054 _11_ RTR  --- 0 AODV 48 [0 ffffffff 9 800] ------- [9:255 -1:255 29 0] [0x2 2 1 [18 0] [0 4]] (REQUEST)
r 0.003477102 _22_ RTR  --- 0 AODV 48 [0 ffffffff 9 800] ------- [9:255 -1:255 29 0] [0x2 2 1 [18 0] [0 4]] (REQUEST)
r 0.003477304 _13_ RTR  --- 0 AODV 48 [0 ffffffff 9 800] ------- [9:255 -1:255 29 0] [0x2 2 1 [18 0] [0 4]] (REQUEST)
r 0.003477658 _20_ RTR  --- 0 AODV 48 [0 ffffffff 9 800] ------- [9:255 -1:255 29 0] [0x2 2 1 [18 0] [0 4]] (REQUEST)
r 0.003477751 _21_ RTR  --- 0 AODV 48 [0 ffffffff 9 800] ------- [9:255 -1:255 29 0] [0x2 2 1 [18 0] [0 4]] (REQUEST)
r 0.003479270 _1_ RTR  --- 0 AODV 48 [0 ffffffff 9 800] ------- [9:255 -1:255 29 0] [0x2 2 1 [18 0] [0 4]] (REQUEST)
s 0.003521260 _0_ MAC  --- 0 RTS 44 [52e 12 0 0] 
s 0.003783987 _10_ RTR  --- 0 AODV 48 [0 ffffffff 0 800] ------- [10:255 -1:255 29 0] [0x2 2 1 [18 0] [0 4]] (REQUEST)
r 0.003873793 _18_ MAC  --- 0 RTS 44 [52e 12 0 0] 
s 0.003883793 _18_ MAC  --- 0 CTS 38 [3f4 0 0 0] 
r 0.004188326 _0_ MAC  --- 0 CTS 38 [3f4 0 0 0] 
s 0.004198326 _0_ MAC  --- 0 ARP 86 [13a 12 0 806] ------- [REPLY 0/0 18/18]
r 0.004886859 _18_ MAC  --- 0 ARP 28 [13a 12 0 806] ------- [REPLY 0/0 18/18]
s 0.004896859 _18_ MAC  --- 0 ACK 38 [0 0 0 0] 
s 0.004921527 _12_ RTR  --- 0 AODV 48 [0 ffffffff 0 800] ------- [12:255 -1:255 29 0] [0x2 2 1 [18 0] [0 4]] (REQUEST)
s 0.005158441 _22_ RTR  --- 0 AODV 48 [0 ffffffff 0 800] ------- [22:255 -1:255 29 0] [0x2 2 1 [18 0] [0 4]] (REQUEST)
r 0.005201392 _0_ MAC  --- 0 ACK 38 [0 0 0 0] 
s 0.005271614 _22_ MAC  --- 0 AODV 106 [0 ffffffff 16 800] ------- [22:255 -1:255 29 0] [0x2 2 1 [18 0] [0 4]] (REQUEST)
r 0.006120060 _19_ MAC  --- 0 AODV 48 [0 ffffffff 16 800] ------- [22:255 -1:255 29 0] [0x2 2 1 [18 0] [0 4]] (REQUEST)
r 0.006120329 _21_ MAC  --- 0 AODV 48 [0 ffffffff 16 800] ------- [22:255 -1:255 29 0] [0x2 2 1 [18 0] [0 4]] (REQUEST)
r 0.006120370 _18_ MAC  --- 0 AODV 48 [0 ffffffff 16 800] ------- [22:255 -1:255 29 0] [0x2 2 1 [18 0] [0 4]] (REQUEST)
r 0.006120464 _12_ MAC  --- 0 AODV 48 [0 ffffffff 16 800] ------- [22:255 -1:255 29 0] [0x2 2 1 [18 0] [0 4]] (REQUEST)
r 0.006120479 _0_ MAC  --- 0 AODV 48 [0 ffffffff 16 800] ------- [22:255 -1:255 29 0] [0x2 2 1 [18 0] [0 4]] (REQUEST)
r 0.006120580 _20_ MAC  --- 0 AODV 48 [0 ffffffff 16 800] ------- [22:255 -1:255 29 0] [0x2 2 1 [18 0] [0 4]] (REQUEST)
r 0.006120652 _17_ MAC  --- 0 AODV 48 [0 ffffffff 16 800] ------- [22:255 -1:255 29 0] [0x2 2 1 [18 0] [0 4]] (REQUEST)
r 0.006120730 _13_ MAC  --- 0 AODV 48 [0 ffffffff 16 800] ------- [22:255 -1:255 29 0] [0x2 2 1 [18 0] [0 4]] (REQUEST)
r 0.006120855 _15_ MAC  --- 0 AODV 48 [0 ffffffff 16 800] ------- [22:255 -1:255 29 0] [0x2 2 1 [18 0] [0 4]] (REQUEST)
r 0.006120987 _8_ MAC  --- 0 AODV 48 [0 ffffffff 16 800] ------- [22:255 -1:255 29 0] [0x2 2 1 [18 0] [0 4]] (REQUEST)
r 0.006121031 _14_ MAC  --- 0 AODV 48 [0 ffffffff 16 800] ------- [22:255 -1:255 29 0] [0x2 2 1 [18 0] [0 4]] (REQUEST)
r 0.006121039 _11_ MAC  --- 0 AODV 48 [0 ffffffff 16 800] ------- [22:255 -1:255 29 0] [0x2 2 1 [18 0] [0 4]] (REQUEST)
r 0.006121100 _16_ MAC  --- 0 AODV 48 [0 ffffffff 16 800] ------- [22:255 -1:255 29 0] [0x2 2 1 [18 0] [0 4]] (REQUEST)
r 0.006121169 _7_ MAC  --- 0 AODV 48 [0 ffffffff 16 800] ------- [22:255 -1:255 29 0] [0x2 2 1 [18 0] [0 4]] (REQUEST)
r 0.006121195 _9_ MAC  --- 0 AODV 48 [0 ffffffff 16 800] ------- [22:255 -1:255 29 0] [0x2 2 1 [18 0] [0 4]] (REQUEST)
r 0.006121454 _6_ MAC  --- 0 AODV 48 [0 ffffffff 16 800] ------- [22:255 -1:255 29 0] [0x2 2 1 [18 0] [0 4]] (REQUEST)
r 0.006121505 _10_ MAC  --- 0 AODV 48 [0 ffffffff 16 800] ------- [22:255 -1:255 29 0] [0x2 2 1 [18 0] [0 4]] (REQUEST)
r 0.006121517 _4_ MAC  --- 0 AODV 48 [0 ffffffff 16 800] ------- [22:255 -1:255 29 0] [0x2 2 1 [18 0] [0 4]] (REQUEST)
r 0.006121665 _5_ MAC  --- 0 AODV 48 [0 ffffffff 16 800] ------- [22:255 -1:255 29 0] [0x2 2 1 [18 0] [0 4]] (REQUEST)
r 0.006121807 _3_ MAC  --- 0 AODV 48 [0 ffffffff 16 800] ------- [22:255 -1:255 29 0] [0x2 2 1 [18 0] [0 4]] (REQUEST)
r 0.006121897 _1_ MAC  --- 0 AODV 48 [0 ffffffff 16 800] ------- [22:255 -1:255 29 0] [0x2 2 1 [18 0] [0 4]] (REQUEST)
r 0.006122049 _2_ MAC  --- 0 AODV 48 [0 ffffffff 16 800] ------- [22:255 -1:255 29 0] [0x2 2 1 [18 0] [0 4]] (REQUEST)
r 0.006145060 _19_ RTR  --- 0 AODV 48 [0 ffffffff 16 800] ------- [22:255 -1:255 29 0] [0x2 2 1 [18 0] [0 4]] (REQUEST)
r 0.006145329 _21_ RTR  --- 0 AODV 48 [0 ffffffff 16 800] ------- [22:255 -1:255 29 0] [0x2 2 1 [18 0] [0 4]] (REQUEST)
r 0.006145370 _18_ RTR  --- 0 AODV 48 [0 ffffffff 16 800] ------- [22:255 -1:255 29 0] [0x2 2 1 [18 0] [0 4]] (REQUEST)
r 0.006145464 _12_ RTR  --- 0 AODV 48 [0 ffffffff 16 800] ------- [22:255 -1:255 29 0] [0x2 2 1 [18 0] [0 4]] (REQUEST)
r 0.006145479 _0_ RTR  --- 0 AODV 48 [0 ffffffff 16 800] ------- [22:255 -1:255 29 0] [0x2 2 1 [18 0] [0 4]] (REQUEST)
r 0.006145580 _20_ RTR  --- 0 AODV 48 [0 ffffffff 16 800] ------- [22:255 -1:255 29 0] [0x2 2 1 [18 0] [0 4]] (REQUEST)
r 0.006145652 _17_ RTR  --- 0 AODV 48 [0 ffffffff 16 800] ------- [22:255 -1:255 29 0] [0x2 2 1 [18 0] [0 4]] (REQUEST)
r 0.006145730 _13_ RTR  --- 0 AODV 48 [0 ffffffff 16 800] ------- [22:255 -1:255 29 0] [0x2 2 1 [18 0] [0 4]] (REQUEST)
r 0.006145855 _15_ RTR  --- 0 AODV 48 [0 ffffffff 16 800] ------- [22:255 -1:255 29 0] [0x2 2 1 [18 0] [0 4]] (REQUEST)
r 0.006145987 _8_ RTR  --- 0 AODV 48 [0 ffffffff 16 800] ------- [22:255 -1:255 29 0] [0x2 2 1 [18 0] [0 4]] (REQUEST)
r 0.006146031 _14_ RTR  --- 0 AODV 48 [0 ffffffff 16 800] ------- [22:255 -1:255 29 0] [0x2 2 1 [18 0] [0 4]] (REQUEST)
r 0.006146039 _11_ RTR  --- 0 AODV 48 [0 ffffffff 16 800] ------- [22:255 -1:255 29 0] [0x2 2 1 [18 0] [0 4]] (REQUEST)
r 0.006146100 _16_ RTR  --- 0 AODV 48 [0 ffffffff 16 800] ------- [22:255 -1:255 29 0] [0x2 2 1 [18 0] [0 4]] (REQUEST)
r 0.006146169 _7_ RTR  --- 0 AODV 48 [0 ffffffff 16 800] ------- [22:255 -1:255 29 0] [0x2 2 1 [18 0] [0 4]] (REQUEST)
r 0.006146195 _9_ RTR  --- 0 AODV 48 [0 ffffffff 16 800] ------- [22:255 -1:255 29 0] [0x2 2 1 [18 0] [0 4]] (REQUEST)
r 0.006146454 _6_ RTR  --- 0 AODV 48 [0 ffffffff 16 800] ------- [22:255 -1:255 29 0] [0x2 2 1 [18 0] [0 4]] (REQUEST)
r 0.006146505 _10_ RTR  --- 0 AODV 48 [0 ffffffff 16 800] ------- [22:255 -1:255 29 0] [0x2 2 1 [18 0] [0 4]] (REQUEST)
r 0.006146517 _4_ RTR  --- 0 AODV 48 [0 ffffffff 16 800] ------- [22:255 -1:255 29 0] [0x2 2 1 [18 0] [0 4]] (REQUEST)
r 0.006146665 _5_ RTR  --- 0 AODV 48 [0 ffffffff 16 800] ------- [22:255 -1:255 29 0] [0x2 2 1 [18 0] [0 4]] (REQUEST)
r 0.006146807 _3_ RTR  --- 0 AODV 48 [0 ffffffff 16 800] ------- [22:255 -1:255 29 0] [0x2 2 1 [18 0] [0 4]] (REQUEST)
r 0.006146897 _1_ RTR  --- 0 AODV 48 [0 ffffffff 16 800] ------- [22:255 -1:255 29 0] [0x2 2 1 [18 0] [0 4]] (REQUEST)
r 0.006147049 _2_ RTR  --- 0 AODV 48 [0 ffffffff 16 800] ------- [22:255 -1:255 29 0] [0x2 2 1 [18 0] [0 4]] (REQUEST)
s 0.006217632 _4_ RTR  --- 0 AODV 48 [0 ffffffff 0 800] ------- [4:255 -1:255 29 0] [0x2 2 1 [18 0] [0 4]] (REQUEST)
s 0.006350370 _18_ MAC  --- 0 RTS 44 [5ae 0 12 0] 
s 0.006455316 _6_ RTR  --- 0 AODV 48 [0 ffffffff 0 800] ------- [6:255 -1:255 29 0] [0x2 2 1 [18 0] [0 4]] (REQUEST)
r 0.006702903 _0_ MAC  --- 0 RTS 44 [5ae 0 12 0] 
s 0.006712903 _0_ MAC  --- 0 CTS 38 [474 12 0 0] 
s 0.006869995 _5_ RTR  --- 0 AODV 48 [0 ffffffff 0 800] ------- [5:255 -1:255 29 0] [0x2 2 1 [18 0] [0 4]] (REQUEST)
s 0.006939942 _13_ RTR  --- 0 AODV 48 [0 ffffffff 0 800] ------- [13:255 -1:255 29 0] [0x2 2 1 [18 0] [0 4]] (REQUEST)
r 0.007017436 _18_ MAC  --- 0 CTS 38 [474 12 0 0] 
s 0.007027436 _18_ MAC  --- 0 AODV 102 [13a 0 12 800] ------- [18:255 0:255 30 0] [0x4 1 [18 4] 10.000000] (REPLY)
s 0.007147814 _19_ RTR  --- 0 AODV 48 [0 ffffffff 0 800] ------- [19:255 -1:255 29 0] [0x2 2 1 [18 0] [0 4]] (REQUEST)
s 0.007207552 _14_ RTR  --- 0 AODV 48 [0 ffffffff 0 800] ------- [14:255 -1:255 29 0] [0x2 2 1 [18 0] [0 4]] (REQUEST)
r 0.007843969 _0_ MAC  --- 0 AODV 44 [13a 0 12 800] ------- [18:255 0:255 30 0] [0x4 1 [18 4] 10.000000] (REPLY)
s 0.007853969 _0_ MAC  --- 0 ACK 38 [0 12 0 0] 
r 0.007868969 _0_ RTR  --- 0 AODV 44 [13a 0 12 800] ------- [18:255 0:255 30 0] [0x4 1 [18 4] 10.000000] (REPLY)
s 0.007868969 _0_ RTR  --- 0 cbr 1020 [0 0 0 0] ------- [0:0 18:0 30 18] [0] 0 0
s 0.008019817 _2_ RTR  --- 0 AODV 48 [0 ffffffff 0 800] ------- [2:255 -1:255 29 0] [0x2 2 1 [18 0] [0 4]] (REQUEST)
r 0.008158502 _18_ MAC  --- 0 ACK 38 [0 12 0 0] 
s 0.008228489 _12_ MAC  --- 0 AODV 106 [0 ffffffff c 800] ------- [12:255 -1:255 29 0] [0x2 2 1 [18 0] [0 4]] (REQUEST)
s 0.008228731 _19_ MAC  --- 0 AODV 106 [0 ffffffff 13 800] ------- [19:255 -1:255 29 0] [0x2 2 1 [18 0] [0 4]] (REQUEST)
D 0.008229413 _13_ MAC  COL 0 AODV 106 [0 ffffffff c 800] ------- [12:255 -1:255 29 0] [0x2 2 1 [18 0] [0 4]] (REQUEST)
D 0.008229494 _0_ MAC  COL 0 AODV 106 [0 ffffffff c 800] ------- [12:255 -1:255 29 0] [0x2 2 1 [18 0] [0 4]] (REQUEST)
D 0.008229506 _20_ MAC  COL 0 AODV 106 [0 ffffffff 13 800] ------- [19:255 -1:255 29 0] [0x2 2 1 [18 0] [0 4]] (REQUEST)
D 0.008229669 _18_ MAC  COL 0 AODV 106 [0 ffffffff c 800] ------- [12:255 -1:255 29 0] [0x2 2 1 [18 0] [0 4]] (REQUEST)
D 0.008229720 _11_ MAC  COL 0 AODV 106 [0 ffffffff c 800] ------- [12:255 -1:255 29 0] [0x2 2 1 [18 0] [0 4]] (REQUEST)
D 0.008229742 _21_ MAC  COL 0 AODV 106 [0 ffffffff 13 800] ------- [19:255 -1:255 29 0] [0x2 2 1 [18 0] [0 4]] (REQUEST)
D 0.008229961 _17_ MAC  COL 0 AODV 106 [0 ffffffff c 800] ------- [12:255 -1:255 29 0] [0x2 2 1 [18 0] [0 4]] (REQUEST)
D 0.008229979 _14_ MAC  COL 0 AODV 106 [0 ffffffff c 800] ------- [12:255 -1:255 29 0] [0x2 2 1 [18 0] [0 4]] (REQUEST)
D 0.008229991 _7_ MAC  COL 0 AODV 106 [0 ffffffff c 800] ------- [12:255 -1:255 29 0] [0x2 2 1 [18 0] [0 4]] (REQUEST)
D 0.008229992 _15_ MAC  COL 0 AODV 106 [0 ffffffff c 800] ------- [12:255 -1:255 29 0] [0x2 2 1 [18 0] [0 4]] (REQUEST)
D 0.008230197 _6_ MAC  COL 0 AODV 106 [0 ffffffff c 800] ------- [12:255 -1:255 29 0] [0x2 2 1 [18 0] [0 4]] (REQUEST)
D 0.008230223 _9_ MAC  COL 0 AODV 106 [0 ffffffff c 800] ------- [12:255 -1:255 29 0] [0x2 2 1 [18 0] [0 4]] (REQUEST)
D 0.008230334 _16_ MAC  COL 0 AODV 106 [0 ffffffff c 800] ------- [12:255 -1:255 29 0] [0x2 2 1 [18 0] [0 4]] (REQUEST)
D 0.008230425 _4_ MAC  COL 0 AODV 106 [0 ffffffff c 800] ------- [12:255 -1:255 29 0] [0x2 2 1 [18 0] [0 4]] (REQUEST)
D 0.008230471 _5_ MAC  COL 0 AODV 106 [0 ffffffff c 800] ------- [12:255 -1:255 29 0] [0x2 2 1 [18 0] [0 4]] (REQUEST)
D 0.008230605 _10_ MAC  COL 0 AODV 106 [0 ffffffff c 800] ------- [12:255 -1:255 29 0] [0x2 2 1 [18 0] [0 4]] (REQUEST)
D 0.008230773 _3_ MAC  COL 0 AODV 106 [0 ffffffff c 800] ------- [12:255 -1:255 29 0] [0x2 2 1 [18 0] [0 4]] (REQUEST)
D 0.008230917 _2_ MAC  COL 0 AODV 106 [0 ffffffff c 800] ------- [12:255 -1:255 29 0] [0x2 2 1 [18 0] [0 4]] (REQUEST)
D 0.008231599 _1_ MAC  COL 0 AODV 106 [0 ffffffff 13 800] ------- [19:255 -1:255 29 0] [0x2 2 1 [18 0] [0 4]] (REQUEST)
s 0.008370739 _15_ RTR  --- 0 AODV 48 [0 ffffffff 0 800] ------- [15:255 -1:255 29 0] [0x2 2 1 [18 0] [0 4]] (REQUEST)
s 0.008942915 _17_ RTR  --- 0 AODV 48 [0 ffffffff 0 800] ------- [17:255 -1:255 29 0] [0x2 2 1 [18 0] [0 4]] (REQUEST)
r 0.009077017 _8_ MAC  --- 0 AODV 48 [0 ffffffff c 800] ------- [12:255 -1:255 29 0] [0x2 2 1 [18 0] [0 4]] (REQUEST)
r 0.009077177 _22_ MAC  --- 0 AODV 48 [0 ffffffff 13 800] ------- [19:255 -1:255 29 0] [0x2 2 1 [18 0] [0 4]] (REQUEST)
D 0.009077413 _13_ MAC  COL 0 AODV 106 [0 ffffffff 13 800] ------- [19:255 -1:255 29 0] [0x2 2 1 [18 0] [0 4]] (REQUEST)
D 0.009077494 _0_ MAC  COL 0 AODV 106 [0 ffffffff 13 800] ------- [19:255 -1:255 29 0] [0x2 2 1 [18 0] [0 4]] (REQUEST)
D 0.009077506 _20_ MAC  COL 0 AODV 106 [0 ffffffff c 800] ------- [12:255 -1:255 29 0] [0x2 2 1 [18 0] [0 4]] (REQUEST)
D 0.009077669 _18_ MAC  COL 0 AODV 106 [0 ffffffff 13 800] ------- [19:255 -1:255 29 0] [0x2 2 1 [18 0] [0 4]] (REQUEST)
D 0.009077720 _11_ MAC  COL 0 AODV 106 [0 ffffffff 13 800] ------- [19:255 -1:255 29 0] [0x2 2 1 [18 0] [0 4]] (REQUEST)
D 0.009077742 _21_ MAC  COL 0 AODV 106 [0 ffffffff c 800] ------- [12:255 -1:255 29 0] [0x2 2 1 [18 0] [0 4]] (REQUEST)
D 0.009077961 _17_ MAC  COL 0 AODV 106 [0 ffffffff 13 800] ------- [19:255 -1:255 29 0] [0x2 2 1 [18 0] [0 4]] (REQUEST)
D 0.009077979 _14_ MAC  COL 0 AODV 106 [0 ffffffff 13 800] ------- [19:255 -1:255 29 0] [0x2 2 1 [18 0] [0 4]] (REQUEST)
D 0.009077991 _7_ MAC  COL 0 AODV 106 [0 ffffffff 13 800] ------- [19:255 -1:255 29 0] [0x2 2 1 [18 0] [0 4]] (REQUEST)
D 0.009077992 _15_ MAC  COL 0 AODV 106 [0 ffffffff 13 800] ------- [19:255 -1:255 29 0] [0x2 2 1 [18 0] [0 4]] (REQUEST)
D 0.009078197 _6_ MAC  COL 0 AODV 106 [0 ffffffff 13 800] ------- [19:255 -1:255 29 0] [0x2 2 1 [18 0] [0 4]] (REQUEST)
D 0.009078223 _9_ MAC  COL 0 AODV 106 [0 ffffffff 13 800] ------- [19:255 -1:255 29 0] [0x2 2 1 [18 0] [0 4]] (REQUEST)
D 0.009078334 _16_ MAC  COL 0 AODV 106 [0 ffffffff 13 800] ------- [19:255 -1:255 29 0] [0x2 2 1 [18 0] [0 4]] (REQUEST)
D 0.009078425 _4_ MAC  COL 0 AODV 106 [0 ffffffff 13 800] ------- [19:255 -1:255 29 0] [0x2 2 1 [18 0] [0 4]] (REQUEST)
D 0.009078471 _5_ MAC  COL 0 AODV 106 [0 ffffffff 13 800] ------- [19:255 -1:255 29 0] [0x2 2 1 [18 0] [0 4]] (REQUEST)
D 0.009078605 _10_ MAC  COL 0 AODV 106 [0 ffffffff 13 800] ------- [19:255 -1:255 29 0] [0x2 2 1 [18 0] [0 4]] (REQUEST)
D 0.009078773 _3_ MAC  COL 0 AODV 106 [0 ffffffff 13 800] ------- [19:255 -1:255 29 0] [0x2 2 1 [18 0] [0 4]] (REQUEST)
D 0.009078917 _2_ MAC  COL 0 AODV 106 [0 ffffffff 13 800] ------- [19:255 -1:255 29 0] [0x2 2 1 [18 0] [0 4]] (REQUEST)
D 0.009079599 _1_ MAC  COL 0 AODV 106 [0 ffffffff c 800] ------- [12:255 -1:255 29 0] [0x2 2 1 [18 0] [0 4]] (REQUEST)
r 0.009102017 _8_ RTR  --- 0 AODV 48 [0 ffffffff c 800] ------- [12:255 -1:255 29 0] [0x2 2 1 [18 0] [0 4]] (REQUEST)
r 0.009102177 _22_ RTR  --- 0 AODV 48 [0 ffffffff 13 800] ------- [19:255 -1:255 29 0] [0x2 2 1 [18 0] [0 4]] (REQUEST)
s 0.009512773 _3_ MAC  --- 0 AODV 106 [0 ffffffff 3 800] ------- [3:255 -1:255 29 0] [0x2 2 1 [18 0] [0 4]] (REQUEST)
s 0.009519012 _1_ RTR  --- 0 AODV 48 [0 ffffffff 0 800] ------- [1:255 -1:255 29 0] [0x2 2 1 [18 0] [0 4]] (REQUEST)
s 0.009697890 _11_ RTR  --- 0 AODV 48 [0 ffffffff 0 800] ------- [11:255 -1:255 29 0] [0x2 2 1 [18 0] [0 4]] (REQUEST)
s 0.009768414 _7_ RTR  --- 0 AODV 48 [0 ffffffff 0 800] ------- [7:255 -1:255 29 0] [0x2 2 1 [18 0] [0 4]] (REQUEST)
r 0.010361200 _4_ MAC  --- 0 AODV 48 [0 ffffffff 3 800] ------- [3:255 -1:255 29 0] [0x2 2 1 [18 0] [0 4]] (REQUEST)
r 0.010361353 _2_ MAC  --- 0 AODV 48 [0 ffffffff 3 800] ------- [3:255 -1:255 29 0] [0x2 2 1 [18 0] [0 4]] (REQUEST)
r 0.010361413 _9_ MAC  --- 0 AODV 48 [0 ffffffff 3 800] ------- [3:255 -1:255 29 0] [0x2 2 1 [18 0] [0 4]] (REQUEST)
r 0.010361425 _10_ MAC  --- 0 AODV 48 [0 ffffffff 3 800] ------- [3:255 -1:255 29 0] [0x2 2 1 [18 0] [0 4]] (REQUEST)
r 0.010361568 _14_ MAC  --- 0 AODV 48 [0 ffffffff 3 800] ------- [3:255 -1:255 29 0] [0x2 2 1 [18 0] [0 4]] (REQUEST)
r 0.010361650 _5_ MAC  --- 0 AODV 48 [0 ffffffff 3 800] ------- [3:255 -1:255 29 0] [0x2 2 1 [18 0] [0 4]] (REQUEST)
r 0.010361740 _7_ MAC  --- 0 AODV 48 [0 ffffffff 3 800] ------- [3:255 -1:255 29 0] [0x2 2 1 [18 0] [0 4]] (REQUEST)
r 0.010361850 _15_ MAC  --- 0 AODV 48 [0 ffffffff 3 800] ------- [3:255 -1:255 29 0] [0x2 2 1 [18 0] [0 4]] (REQUEST)
r 0.010362003 _16_ MAC  --- 0 AODV 48 [0 ffffffff 3 800] ------- [3:255 -1:255 29 0] [0x2 2 1 [18 0] [0 4]] (REQUEST)
r 0.010362057 _6_ MAC  --- 0 AODV 48 [0 ffffffff 3 800] ------- [3:255 -1:255 29 0] [0x2 2 1 [18 0] [0 4]] (REQUEST)
r 0.010362098 _8_ MAC  --- 0 AODV 48 [0 ffffffff 3 800] ------- [3:255 -1:255 29 0] [0x2 2 1 [18 0] [0 4]] (REQUEST)
r 0.010362103 _0_ MAC  --- 0 AODV 48 [0 ffffffff 3 800] ------- [3:255 -1:255 29 0] [0x2 2 1 [18 0] [0 4]] (REQUEST)
r 0.010362324 _17_ MAC  --- 0 AODV 48 [0 ffffffff 3 800] ------- [3:255 -1:255 29 0] [0x2 2 1 [18 0] [0 4]] (REQUEST)
r 0.010362387 _12_ MAC  --- 0 AODV 48 [0 ffffffff 3 800] ------- [3:255 -1:255 29 0] [0x2 2 1 [18 0] [0 4]] (REQUEST)
r 0.010362402 _18_ MAC  --- 0 AODV 48 [0 ffffffff 3 800] ------- [3:255 -1:255 29 0] [0x2 2 1 [18 0] [0 4]] (REQUEST)
r 0.010362584 _11_ MAC  --- 0 AODV 48 [0 ffffffff 3 800] ------- [3:255 -1:255 29 0] [0x2 2 1 [18 0] [0 4]] (REQUEST)
r 0.010362815 _19_ MAC  --- 0 AODV 48 [0 ffffffff 3 800] ------- [3:255 -1:255 29 0] [0x2 2 1 [18 0] [0 4]] (REQUEST)
r 0.010362960 _13_ MAC  --- 0 AODV 48 [0 ffffffff 3 800] ------- [3:255 -1:255 29 0] [0x2 2 1 [18 0] [0 4]] (REQUEST)
r 0.010362966 _22_ MAC  --- 0 AODV 48 [0 ffffffff 3 800] ------- [3:255 -1:255 29 0] [0x2 2 1 [18 0] [0 4]] (REQUEST)
r 0.010363402 _20_ MAC  --- 0 AODV 48 [0 ffffffff 3 800] ------- [3:255 -1:255 29 0] [0x2 2 1 [18 0] [0 4]] (REQUEST)
r 0.010363578 _21_ MAC  --- 0 AODV 48 [0 ffffffff 3 800] ------- [3:255 -1:255 29 0] [0x2 2 1 [18 0] [0 4]] (REQUEST)
r 0.010365160 _1_ MAC  --- 0 AODV 48 [0 ffffffff 3 800] ------- [3:255 -1:255 29 0] [0x2 2 1 [18 0] [0 4]] (REQUEST)
r 0.010386200 _4_ RTR  --- 0 AODV 48 [0 ffffffff 3 800] ------- [3:255 -1:255 29 0] [0x2 2 1 [18 0] [0 4]] (REQUEST)